************************************************************
This is node27.cluster of cluster Pinconning.
Date: Wed Jun  1 02:25:40 PDT 2022
************************************************************
 Set GAUSS_MDEF to "110GB".
 Set GAUSS_PDEF to "16".
 Entering Gaussian System, Link 0=gdv
 Initial command:
 /opt/gaussian/gdv-20170407-i10+/gdv/local/l1.exe "/tmp/797468.1.16core.q/Gau-5009.inp" -scrdir="/tmp/797468.1.16core.q/"
 Default is to use a total of  16 processors:
                               16 via shared-memory
                                1 via Linda
 Entering Link 1 = /opt/gaussian/gdv-20170407-i10+/gdv/local/l1.exe PID=      5010.
  
 Copyright (c) 1988-2017, Gaussian, Inc.  All Rights Reserved.
  
 This is the private, development version of
 the Gaussian(R) DV system of programs. It is based on
 the Gaussian(R) 16 system (copyright 2016, Gaussian, Inc.),
 the Gaussian(R) 09 system (copyright 2009, Gaussian, Inc.),
 the Gaussian(R) 03 system (copyright 2003, Gaussian, Inc.),
 the Gaussian(R) 98 system (copyright 1998, Gaussian, Inc.),
 the Gaussian(R) 94 system (copyright 1995, Gaussian, Inc.),
 the Gaussian 92(TM) system (copyright 1992, Gaussian, Inc.),
 the Gaussian 90(TM) system (copyright 1990, Gaussian, Inc.),
 the Gaussian 88(TM) system (copyright 1988, Gaussian, Inc.),
 the Gaussian 86(TM) system (copyright 1986, Carnegie Mellon
 University), and the Gaussian 82(TM) system (copyright 1983,
 Carnegie Mellon University). Gaussian is a federally registered
 trademark of Gaussian, Inc.
  
 This software contains proprietary and confidential information,
 including trade secrets, belonging to Gaussian, Inc.
  
 This software is provided under written license and may be
 used, copied, transmitted, or stored only in accord with that
 written license.
  
 The following legend is applicable only to US Government
 contracts under FAR:
  
                    RESTRICTED RIGHTS LEGEND
  
 Use, reproduction and disclosure by the US Government is
 subject to restrictions as set forth in subparagraphs (a)
 and (c) of the Commercial Computer Software - Restricted
 Rights clause in FAR 52.227-19.
  
 Gaussian, Inc.
 340 Quinnipiac St., Bldg. 40, Wallingford CT 06492
  
  
 ---------------------------------------------------------------
 Warning -- This program may not be used in any manner that
 competes with the business of Gaussian, Inc. or will provide
 assistance to any competitor of Gaussian, Inc.  The licensee
 of this program is prohibited from giving any competitor of
 Gaussian, Inc. access to this program.  By using this program,
 the user acknowledges that Gaussian, Inc. is engaged in the
 business of creating and licensing software in the field of
 computational chemistry and represents and warrants to the
 licensee that it is not a competitor of Gaussian, Inc. and that
 it will not use this program in any manner prohibited above.
 ---------------------------------------------------------------
  

 Cite this work as:
 Gaussian Development Version, Revision I.10+,
 M. J. Frisch, G. W. Trucks, H. B. Schlegel, G. E. Scuseria, 
 M. A. Robb, J. R. Cheeseman, G. Scalmani, V. Barone, 
 G. A. Petersson, H. Nakatsuji, X. Li, M. Caricato, A. V. Marenich, 
 J. Bloino, B. G. Janesko, R. Gomperts, B. Mennucci, H. P. Hratchian, 
 J. V. Ortiz, A. F. Izmaylov, J. L. Sonnenberg, D. Williams-Young, 
 F. Ding, F. Lipparini, F. Egidi, J. Goings, B. Peng, A. Petrone, 
 T. Henderson, D. Ranasinghe, V. G. Zakrzewski, J. Gao, N. Rega, 
 G. Zheng, W. Liang, M. Hada, M. Ehara, K. Toyota, R. Fukuda, 
 J. Hasegawa, M. Ishida, T. Nakajima, Y. Honda, O. Kitao, H. Nakai, 
 T. Vreven, K. Throssell, J. A. Montgomery, Jr., J. E. Peralta, 
 F. Ogliaro, M. J. Bearpark, J. J. Heyd, E. N. Brothers, K. N. Kudin, 
 V. N. Staroverov, T. A. Keith, R. Kobayashi, J. Normand, 
 K. Raghavachari, A. P. Rendell, J. C. Burant, S. S. Iyengar, 
 J. Tomasi, M. Cossi, J. M. Millam, M. Klene, C. Adamo, R. Cammi, 
 J. W. Ochterski, R. L. Martin, K. Morokuma, O. Farkas, 
 J. B. Foresman, and D. J. Fox, Gaussian, Inc., Wallingford CT, 2016.
 
 *******************************************
 Gaussian DV:  ES64L-GDVRevI.10+ 27-Mar-2017
                  1-Jun-2022 
 *******************************************
 %chk=anthracene_deri_opt.chk
 ----------------------------------------------------------------------
 # opt cam-b3lyp/6-31g(d) scrf=(iefpcm,solvent=ethanol) geom=connectivi
 ty
 ----------------------------------------------------------------------
 1/18=20,19=15,26=3,38=1,57=2/1,3;
 2/9=110,12=2,17=6,18=5,40=1/2;
 3/5=1,6=6,7=1,11=2,25=1,30=1,70=2201,71=1,72=4,74=-40/1,2,3;
 4//1;
 5/5=2,38=5,53=4/2;
 6/7=2,8=2,9=2,10=2,28=1/1;
 7//1,2,3,16;
 1/18=20,19=15,26=3/3(2);
 2/9=110/2;
 99//99;
 2/9=110/2;
 3/5=1,6=6,7=1,11=2,25=1,30=1,70=2205,71=1,72=4,74=-40/1,2,3;
 4/5=5,16=3,69=1/1;
 5/5=2,38=5,53=4/2;
 7//1,2,3,16;
 1/18=20,19=15,26=3/3(-5);
 2/9=110/2;
 6/7=2,8=2,9=2,10=2,19=2,28=1/1;
 99/9=1/99;
 ----------------------------------
 Anthracene Derivative Optimization
 ----------------------------------
 Symbolic Z-matrix:
 Charge =  0 Multiplicity = 1
 C                     1.34896  -0.35983  -0.0089 
 C                     0.99186   0.99166   0.00515 
 C                     2.70232  -0.71685  -0.01763 
 C                     1.99222   1.97063   0.01031 
 C                    -0.35997   1.361     0.01398 
 C                     0.35602  -1.34876  -0.01419 
 C                     3.65778   0.24668  -0.01243 
 N                     3.08849  -2.13515  -0.03241 
 C                     3.29891   1.60485   0.00169 
 H                     1.72667   3.0071    0.02105 
 C                    -1.3529    0.37208   0.00869 
 H                    -0.6333    2.39545   0.02473 
 C                    -0.99581  -0.97942  -0.00536 
 H                     0.62935  -2.3832   -0.02495 
 H                     4.69141  -0.02983  -0.01912 
 H                     3.17981  -2.46556   0.90699 
 H                     3.962    -2.23784  -0.50828 
 H                     4.06104   2.35588   0.00567 
 C                    -2.70627   0.7291    0.01742 
 C                    -1.99617  -1.95839  -0.01053 
 C                    -3.66173  -0.23444   0.01222 
 O                    -3.08193   2.1088    0.03181 
 C                    -3.30286  -1.59261  -0.00191 
 H                    -1.73062  -2.99486  -0.02127 
 H                    -4.69536   0.04208   0.01892 
 H                    -3.9241    2.21584  -0.41641 
 H                    -4.06499  -2.34363  -0.0059 
 

 GradGradGradGradGradGradGradGradGradGradGradGradGradGradGradGradGradGrad
 Berny optimization.
 Initialization pass.
                           ----------------------------
                           !    Initial Parameters    !
                           ! (Angstroms and Degrees)  !
 --------------------------                            --------------------------
 ! Name  Definition              Value          Derivative Info.                !
 --------------------------------------------------------------------------------
 ! R1    R(1,2)                  1.3979         estimate D2E/DX2                !
 ! R2    R(1,3)                  1.3997         estimate D2E/DX2                !
 ! R3    R(1,6)                  1.4014         estimate D2E/DX2                !
 ! R4    R(2,4)                  1.3997         estimate D2E/DX2                !
 ! R5    R(2,5)                  1.4014         estimate D2E/DX2                !
 ! R6    R(3,7)                  1.3569         estimate D2E/DX2                !
 ! R7    R(3,8)                  1.47           estimate D2E/DX2                !
 ! R8    R(4,9)                  1.3569         estimate D2E/DX2                !
 ! R9    R(4,10)                 1.07           estimate D2E/DX2                !
 ! R10   R(5,11)                 1.4014         estimate D2E/DX2                !
 ! R11   R(5,12)                 1.07           estimate D2E/DX2                !
 ! R12   R(6,13)                 1.4014         estimate D2E/DX2                !
 ! R13   R(6,14)                 1.07           estimate D2E/DX2                !
 ! R14   R(7,9)                  1.4049         estimate D2E/DX2                !
 ! R15   R(7,15)                 1.07           estimate D2E/DX2                !
 ! R16   R(8,16)                 1.0            estimate D2E/DX2                !
 ! R17   R(8,17)                 1.0            estimate D2E/DX2                !
 ! R18   R(9,18)                 1.07           estimate D2E/DX2                !
 ! R19   R(11,13)                1.3979         estimate D2E/DX2                !
 ! R20   R(11,19)                1.3997         estimate D2E/DX2                !
 ! R21   R(13,20)                1.3997         estimate D2E/DX2                !
 ! R22   R(19,21)                1.3569         estimate D2E/DX2                !
 ! R23   R(19,22)                1.43           estimate D2E/DX2                !
 ! R24   R(20,23)                1.3569         estimate D2E/DX2                !
 ! R25   R(20,24)                1.07           estimate D2E/DX2                !
 ! R26   R(21,23)                1.4049         estimate D2E/DX2                !
 ! R27   R(21,25)                1.07           estimate D2E/DX2                !
 ! R28   R(22,26)                0.96           estimate D2E/DX2                !
 ! R29   R(23,27)                1.07           estimate D2E/DX2                !
 ! A1    A(2,1,3)              119.5806         estimate D2E/DX2                !
 ! A2    A(2,1,6)              120.0839         estimate D2E/DX2                !
 ! A3    A(3,1,6)              120.3356         estimate D2E/DX2                !
 ! A4    A(1,2,4)              119.5806         estimate D2E/DX2                !
 ! A5    A(1,2,5)              120.0839         estimate D2E/DX2                !
 ! A6    A(4,2,5)              120.3356         estimate D2E/DX2                !
 ! A7    A(1,3,7)              119.9783         estimate D2E/DX2                !
 ! A8    A(1,3,8)              120.0109         estimate D2E/DX2                !
 ! A9    A(7,3,8)              120.0109         estimate D2E/DX2                !
 ! A10   A(2,4,9)              119.9783         estimate D2E/DX2                !
 ! A11   A(2,4,10)             120.0109         estimate D2E/DX2                !
 ! A12   A(9,4,10)             120.0109         estimate D2E/DX2                !
 ! A13   A(2,5,11)             119.8322         estimate D2E/DX2                !
 ! A14   A(2,5,12)             120.0839         estimate D2E/DX2                !
 ! A15   A(11,5,12)            120.0839         estimate D2E/DX2                !
 ! A16   A(1,6,13)             119.8322         estimate D2E/DX2                !
 ! A17   A(1,6,14)             120.0839         estimate D2E/DX2                !
 ! A18   A(13,6,14)            120.0839         estimate D2E/DX2                !
 ! A19   A(3,7,9)              120.4412         estimate D2E/DX2                !
 ! A20   A(3,7,15)             119.7794         estimate D2E/DX2                !
 ! A21   A(9,7,15)             119.7794         estimate D2E/DX2                !
 ! A22   A(3,8,16)             109.4712         estimate D2E/DX2                !
 ! A23   A(3,8,17)             109.4712         estimate D2E/DX2                !
 ! A24   A(16,8,17)            109.4712         estimate D2E/DX2                !
 ! A25   A(4,9,7)              120.4412         estimate D2E/DX2                !
 ! A26   A(4,9,18)             119.7794         estimate D2E/DX2                !
 ! A27   A(7,9,18)             119.7794         estimate D2E/DX2                !
 ! A28   A(5,11,13)            120.0839         estimate D2E/DX2                !
 ! A29   A(5,11,19)            120.3356         estimate D2E/DX2                !
 ! A30   A(13,11,19)           119.5806         estimate D2E/DX2                !
 ! A31   A(6,13,11)            120.0839         estimate D2E/DX2                !
 ! A32   A(6,13,20)            120.3356         estimate D2E/DX2                !
 ! A33   A(11,13,20)           119.5806         estimate D2E/DX2                !
 ! A34   A(11,19,21)           119.9783         estimate D2E/DX2                !
 ! A35   A(11,19,22)           120.0109         estimate D2E/DX2                !
 ! A36   A(21,19,22)           120.0109         estimate D2E/DX2                !
 ! A37   A(13,20,23)           119.9783         estimate D2E/DX2                !
 ! A38   A(13,20,24)           120.0109         estimate D2E/DX2                !
 ! A39   A(23,20,24)           120.0109         estimate D2E/DX2                !
 ! A40   A(19,21,23)           120.4412         estimate D2E/DX2                !
 ! A41   A(19,21,25)           119.7794         estimate D2E/DX2                !
 ! A42   A(23,21,25)           119.7794         estimate D2E/DX2                !
 ! A43   A(19,22,26)           109.4712         estimate D2E/DX2                !
 ! A44   A(20,23,21)           120.4412         estimate D2E/DX2                !
 ! A45   A(20,23,27)           119.7794         estimate D2E/DX2                !
 ! A46   A(21,23,27)           119.7794         estimate D2E/DX2                !
 ! D1    D(3,1,2,4)              0.0001         estimate D2E/DX2                !
 ! D2    D(3,1,2,5)            179.9999         estimate D2E/DX2                !
 ! D3    D(6,1,2,4)           -179.9999         estimate D2E/DX2                !
 ! D4    D(6,1,2,5)             -0.0001         estimate D2E/DX2                !
 ! D5    D(2,1,3,7)             -0.0001         estimate D2E/DX2                !
 ! D6    D(2,1,3,8)            179.9999         estimate D2E/DX2                !
 ! D7    D(6,1,3,7)            179.9999         estimate D2E/DX2                !
 ! D8    D(6,1,3,8)             -0.0001         estimate D2E/DX2                !
 ! D9    D(2,1,6,13)             0.0002         estimate D2E/DX2                !
 ! D10   D(2,1,6,14)           179.9999         estimate D2E/DX2                !
 ! D11   D(3,1,6,13)          -179.9999         estimate D2E/DX2                !
 ! D12   D(3,1,6,14)            -0.0001         estimate D2E/DX2                !
 ! D13   D(1,2,4,9)              0.0001         estimate D2E/DX2                !
 ! D14   D(1,2,4,10)           179.9998         estimate D2E/DX2                !
 ! D15   D(5,2,4,9)           -179.9997         estimate D2E/DX2                !
 ! D16   D(5,2,4,10)             0.0            estimate D2E/DX2                !
 ! D17   D(1,2,5,11)             0.0001         estimate D2E/DX2                !
 ! D18   D(1,2,5,12)           179.9999         estimate D2E/DX2                !
 ! D19   D(4,2,5,11)           179.9999         estimate D2E/DX2                !
 ! D20   D(4,2,5,12)            -0.0003         estimate D2E/DX2                !
 ! D21   D(1,3,7,9)             -0.0001         estimate D2E/DX2                !
 ! D22   D(1,3,7,15)           179.9999         estimate D2E/DX2                !
 ! D23   D(8,3,7,9)            179.9999         estimate D2E/DX2                !
 ! D24   D(8,3,7,15)            -0.0001         estimate D2E/DX2                !
 ! D25   D(1,3,8,16)           -90.0            estimate D2E/DX2                !
 ! D26   D(1,3,8,17)           150.0            estimate D2E/DX2                !
 ! D27   D(7,3,8,16)            90.0            estimate D2E/DX2                !
 ! D28   D(7,3,8,17)           -30.0            estimate D2E/DX2                !
 ! D29   D(2,4,9,7)             -0.0003         estimate D2E/DX2                !
 ! D30   D(2,4,9,18)           179.9997         estimate D2E/DX2                !
 ! D31   D(10,4,9,7)          -180.0            estimate D2E/DX2                !
 ! D32   D(10,4,9,18)            0.0            estimate D2E/DX2                !
 ! D33   D(2,5,11,13)           -0.0002         estimate D2E/DX2                !
 ! D34   D(2,5,11,19)          179.9998         estimate D2E/DX2                !
 ! D35   D(12,5,11,13)         180.0            estimate D2E/DX2                !
 ! D36   D(12,5,11,19)           0.0            estimate D2E/DX2                !
 ! D37   D(1,6,13,11)           -0.0002         estimate D2E/DX2                !
 ! D38   D(1,6,13,20)         -180.0            estimate D2E/DX2                !
 ! D39   D(14,6,13,11)         180.0            estimate D2E/DX2                !
 ! D40   D(14,6,13,20)           0.0003         estimate D2E/DX2                !
 ! D41   D(3,7,9,4)              0.0003         estimate D2E/DX2                !
 ! D42   D(3,7,9,18)          -179.9997         estimate D2E/DX2                !
 ! D43   D(15,7,9,4)          -179.9997         estimate D2E/DX2                !
 ! D44   D(15,7,9,18)            0.0003         estimate D2E/DX2                !
 ! D45   D(5,11,13,6)            0.0002         estimate D2E/DX2                !
 ! D46   D(5,11,13,20)         180.0            estimate D2E/DX2                !
 ! D47   D(19,11,13,6)        -179.9997         estimate D2E/DX2                !
 ! D48   D(19,11,13,20)          0.0            estimate D2E/DX2                !
 ! D49   D(5,11,19,21)        -180.0            estimate D2E/DX2                !
 ! D50   D(5,11,19,22)           0.0            estimate D2E/DX2                !
 ! D51   D(13,11,19,21)          0.0            estimate D2E/DX2                !
 ! D52   D(13,11,19,22)        180.0            estimate D2E/DX2                !
 ! D53   D(6,13,20,23)         179.9999         estimate D2E/DX2                !
 ! D54   D(6,13,20,24)          -0.0003         estimate D2E/DX2                !
 ! D55   D(11,13,20,23)          0.0001         estimate D2E/DX2                !
 ! D56   D(11,13,20,24)       -180.0            estimate D2E/DX2                !
 ! D57   D(11,19,21,23)         -0.0001         estimate D2E/DX2                !
 ! D58   D(11,19,21,25)        179.9999         estimate D2E/DX2                !
 ! D59   D(22,19,21,23)        179.9999         estimate D2E/DX2                !
 ! D60   D(22,19,21,25)         -0.0001         estimate D2E/DX2                !
 ! D61   D(11,19,22,26)        150.0            estimate D2E/DX2                !
 ! D62   D(21,19,22,26)        -30.0            estimate D2E/DX2                !
 ! D63   D(13,20,23,21)         -0.0003         estimate D2E/DX2                !
 ! D64   D(13,20,23,27)        179.9997         estimate D2E/DX2                !
 ! D65   D(24,20,23,21)        179.9999         estimate D2E/DX2                !
 ! D66   D(24,20,23,27)         -0.0001         estimate D2E/DX2                !
 ! D67   D(19,21,23,20)          0.0003         estimate D2E/DX2                !
 ! D68   D(19,21,23,27)       -179.9997         estimate D2E/DX2                !
 ! D69   D(25,21,23,20)       -179.9997         estimate D2E/DX2                !
 ! D70   D(25,21,23,27)          0.0002         estimate D2E/DX2                !
 --------------------------------------------------------------------------------
 Trust Radius=3.00D-01 FncErr=1.00D-07 GrdErr=1.00D-06 EigMax=2.50D+02 EigMin=1.00D-04
 Number of steps in this run=    155 maximum allowed number of steps=    162.
 GradGradGradGradGradGradGradGradGradGradGradGradGradGradGradGradGradGrad

                          Input orientation:                          
 ---------------------------------------------------------------------
 Center     Atomic      Atomic             Coordinates (Angstroms)
 Number     Number       Type             X           Y           Z
 ---------------------------------------------------------------------
      1          6           0        1.348955   -0.359835   -0.008903
      2          6           0        0.991856    0.991661    0.005147
      3          6           0        2.702325   -0.716853   -0.017626
      4          6           0        1.992222    1.970633    0.010311
      5          6           0       -0.359969    1.361003    0.013978
      6          6           0        0.356019   -1.348759   -0.014191
      7          6           0        3.657776    0.246680   -0.012428
      8          7           0        3.088493   -2.135146   -0.032414
      9          6           0        3.298913    1.604851    0.001688
     10          1           0        1.726672    3.007102    0.021050
     11          6           0       -1.352905    0.372078    0.008690
     12          1           0       -0.633296    2.395448    0.024733
     13          6           0       -0.995805   -0.979417   -0.005362
     14          1           0        0.629346   -2.383205   -0.024946
     15          1           0        4.691409   -0.029832   -0.019125
     16          1           0        3.179812   -2.465563    0.906994
     17          1           0        3.961995   -2.237836   -0.508279
     18          1           0        4.061043    2.355879    0.005667
     19          6           0       -2.706274    0.729097    0.017416
     20          6           0       -1.996172   -1.958390   -0.010527
     21          6           0       -3.661726   -0.234436    0.012216
     22          8           0       -3.081934    2.108797    0.031805
     23          6           0       -3.302863   -1.592608   -0.001908
     24          1           0       -1.730622   -2.994859   -0.021270
     25          1           0       -4.695358    0.042076    0.018918
     26          1           0       -3.924100    2.215836   -0.416413
     27          1           0       -4.064993   -2.343635   -0.005895
 ---------------------------------------------------------------------
                    Distance matrix (angstroms):
                    1          2          3          4          5
     1  C    0.000000
     2  C    1.397947   0.000000
     3  C    1.399696   2.417694   0.000000
     4  C    2.417694   1.399696   2.779858   0.000000
     5  C    2.425330   1.401400   3.700828   2.429911   0.000000
     6  C    1.401400   2.425330   2.429911   3.700828   2.802900
     7  C    2.387159   2.768111   1.356949   2.397207   4.169495
     8  N    2.485614   3.764866   1.470000   4.249831   4.910917
     9  C    2.768111   2.387159   2.397207   1.356949   3.667019
    10  H    3.388190   2.145277   3.849836   1.070000   2.657774
    11  C    2.799295   2.425242   4.198970   3.707460   1.401400
    12  H    3.394412   2.147585   4.562300   2.659703   1.070000
    13  C    2.425242   2.799295   3.707460   4.198970   2.425330
    14  H    2.147585   3.394412   2.659703   4.562300   3.872900
    15  H    3.358720   3.838063   2.104389   3.359812   5.239460
    16  H    2.936834   4.189615   2.034920   4.679129   5.288680
    17  H    3.256416   4.417577   2.034920   4.675485   5.648343
    18  H    3.838063   3.358720   3.359812   2.104389   4.531577
    19  C    4.198970   3.707460   5.598656   4.859767   2.429911
    20  C    3.707460   4.198970   4.859767   5.598656   3.700828
    21  C    5.012295   4.812399   6.382379   6.068729   3.667019
    22  O    5.072335   4.224271   6.437732   5.076083   2.822872
    23  C    4.812399   5.012295   6.068729   6.382379   4.169495
    24  H    4.053061   4.827517   4.984008   6.206181   4.566559
    25  H    6.057725   5.765961   7.436600   6.960111   4.531577
    26  H    5.882623   5.083595   7.257355   5.936757   3.690394
    27  H    5.765961   6.057725   6.960111   7.436600   5.239460
                    6          7          8          9         10
     6  C    0.000000
     7  C    3.667019   0.000000
     8  N    2.843439   2.448996   0.000000
     9  C    4.169495   1.404853   3.746068   0.000000
    10  H    4.566559   3.369008   5.319787   2.106804   0.000000
    11  C    2.425330   5.012295   5.100380   4.812399   4.053061
    12  H    3.872900   4.799155   5.863554   4.010965   2.437947
    13  C    1.401400   4.812399   4.244754   5.012295   4.827517
    14  H    1.070000   4.010965   2.471637   4.799155   5.501059
    15  H    4.531577   1.070000   2.646104   2.147480   4.244320
    16  H    3.173269   2.903454   1.000000   4.171574   5.731193
    17  H    3.746684   2.551713   1.000000   3.932683   5.725927
    18  H    5.239460   2.147480   4.595281   1.070000   2.423555
    19  C    3.700828   6.382379   6.464186   6.068729   4.984008
    20  C    2.429911   6.068729   5.087783   6.382379   6.206181
    21  C    4.169495   7.335339   7.012856   7.199555   6.288282
    22  O    4.876099   6.992363   7.489282   6.400787   4.891806
    23  C    3.667019   7.199555   6.414414   7.335339   6.815723
    24  H    2.657774   6.288282   4.895211   6.815723   6.926630
    25  H    5.239460   8.355699   8.082776   8.145609   7.073462
    26  H    5.584581   7.843828   8.261656   7.260856   5.722648
    27  H    4.531577   8.145609   7.156572   8.355699   7.885081
                   11         12         13         14         15
    11  C    0.000000
    12  H    2.147585   0.000000
    13  C    1.397947   3.394412   0.000000
    14  H    3.394412   4.942900   2.147585   0.000000
    15  H    6.057725   5.851187   5.765961   4.694544   0.000000
    16  H    5.422608   6.240801   4.525130   2.716647   3.012541
    17  H    5.943658   6.547376   5.139682   3.370652   2.376257
    18  H    5.765961   4.694544   6.057725   5.851187   2.467710
    19  C    1.399696   2.659703   2.417694   4.562300   7.436600
    20  C    2.417694   4.562300   1.399696   2.659703   6.960111
    21  C    2.387159   4.010965   2.768111   4.799155   8.355699
    22  O    2.450769   2.465370   3.726980   5.827084   8.062332
    23  C    2.768111   4.799155   2.387159   4.010965   8.145609
    24  H    3.388190   5.501059   2.145277   2.437947   7.073462
    25  H    3.358720   4.694544   3.838063   5.851187   9.387120
    26  H    3.192366   3.325096   4.353563   6.483695   8.912231
    27  H    3.838063   5.851187   3.358720   4.694544   9.056955
                   16         17         18         19         20
    16  H    0.000000
    17  H    1.632993   0.000000
    18  H    4.983498   4.623437   0.000000
    19  C    6.755976   7.317436   6.960111   0.000000
    20  C    5.281087   5.985449   7.436600   2.779858   0.000000
    21  C    7.251565   7.899725   8.145609   1.356949   2.397207
    22  O    7.803857   8.294688   7.147297   1.430000   4.209831
    23  C    6.604031   7.311012   8.355699   2.397207   1.356949
    24  H    5.025355   5.763345   7.885081   3.849836   1.070000
    25  H    8.312355   8.968038   9.056955   2.104389   3.359812
    26  H    8.610021   9.057270   7.997517   1.970203   4.615822
    27  H    7.303111   8.043390   9.387120   3.359812   2.104389
                   21         22         23         24         25
    21  C    0.000000
    22  O    2.413977   0.000000
    23  C    1.404853   3.708145   0.000000
    24  H    3.369008   5.279788   2.106804   0.000000
    25  H    1.070000   2.621953   2.147480   4.244320   0.000000
    26  H    2.501279   0.960000   3.880978   5.667347   2.347250
    27  H    2.147480   4.559822   1.070000   2.423555   2.467710
                   26         27
    26  H    0.000000
    27  H    4.580082   0.000000
 Stoichiometry    C14H11NO
 Framework group  C1[X(C14H11NO)]
 Deg. of freedom    75
 Full point group                 C1      NOp   1
 Largest Abelian subgroup         C1      NOp   1
 Largest concise Abelian subgroup C1      NOp   1
                         Standard orientation:                         
 ---------------------------------------------------------------------
 Center     Atomic      Atomic             Coordinates (Angstroms)
 Number     Number       Type             X           Y           Z
 ---------------------------------------------------------------------
      1          6           0       -1.348955    0.359835   -0.008903
      2          6           0       -0.991856   -0.991661    0.005147
      3          6           0       -2.702325    0.716853   -0.017626
      4          6           0       -1.992222   -1.970633    0.010311
      5          6           0        0.359969   -1.361003    0.013978
      6          6           0       -0.356019    1.348759   -0.014191
      7          6           0       -3.657776   -0.246680   -0.012428
      8          7           0       -3.088493    2.135146   -0.032414
      9          6           0       -3.298913   -1.604851    0.001688
     10          1           0       -1.726672   -3.007102    0.021050
     11          6           0        1.352905   -0.372078    0.008690
     12          1           0        0.633296   -2.395448    0.024733
     13          6           0        0.995805    0.979417   -0.005362
     14          1           0       -0.629346    2.383205   -0.024946
     15          1           0       -4.691409    0.029832   -0.019125
     16          1           0       -3.179812    2.465563    0.906994
     17          1           0       -3.961995    2.237836   -0.508279
     18          1           0       -4.061043   -2.355879    0.005667
     19          6           0        2.706274   -0.729097    0.017416
     20          6           0        1.996172    1.958390   -0.010527
     21          6           0        3.661726    0.234436    0.012216
     22          8           0        3.081934   -2.108797    0.031805
     23          6           0        3.302863    1.592608   -0.001908
     24          1           0        1.730622    2.994859   -0.021270
     25          1           0        4.695358   -0.042076    0.018918
     26          1           0        3.924100   -2.215836   -0.416413
     27          1           0        4.064993    2.343635   -0.005895
 ---------------------------------------------------------------------
 Rotational constants (GHZ):           1.1707919           0.3779135           0.2861184
 Standard basis: 6-31G(d) (6D, 7F)
 There are   262 symmetry adapted cartesian basis functions of A   symmetry.
 There are   262 symmetry adapted basis functions of A   symmetry.
   262 basis functions,   492 primitive gaussians,   262 cartesian basis functions
    55 alpha electrons       55 beta electrons
       nuclear repulsion energy       999.9262235087 Hartrees.
 NAtoms=   27 NActive=   27 NUniq=   27 SFac= 1.00D+00 NAtFMM=   60 NAOKFM=F Big=F
 Integral buffers will be    131072 words long.
 Raffenetti 2 integral format.
 Two-electron integral symmetry is turned on.
 ------------------------------------------------------------------------------
 Polarizable Continuum Model (PCM)
 =================================
 Model                : PCM.
 Atomic radii         : UFF (Universal Force Field).
 Polarization charges : Total charges.
 Charge compensation  : None.
 Solution method      : On-the-fly selection.
 Cavity type          : Scaled VdW (van der Waals Surface) (Alpha=1.100).
 Cavity algorithm     : GePol (No added spheres)
                        Default sphere list used, NSphG=   27.
                        Lebedev-Laikov grids with approx.  5.0 points / Ang**2.
                        Smoothing algorithm: York/Karplus (Gamma=1.0000).
                        Polarization charges: spherical gaussians, with
                                              point-specific exponents (IZeta= 3).
                        Self-potential: point-specific (ISelfS= 7).
                        Self-field    : sphere-specific E.n sum rule (ISelfD= 2).
 1st derivatives      : Analytical E(r).r(x)/FMM algorithm (CHGder, D1EAlg=3).
                        Cavity 1st derivative terms included.
 Solvent              : Ethanol, Eps=  24.852000 Eps(inf)=   1.852593
 ------------------------------------------------------------------------------
 One-electron integrals computed using PRISM.
 NBasis=   262 RedAO= T EigKep=  1.85D-04  NBF=   262
 NBsUse=   262 1.00D-06 EigRej= -1.00D+00 NBFU=   262
 ExpMin= 1.61D-01 ExpMax= 5.48D+03 ExpMxC= 8.25D+02 IAcc=3 IRadAn=         5 AccDes= 0.00D+00
 Harris functional with IExCor=20419 and IRadAn=       5 diagonalized for initial guess.
 HarFok:  IExCor=20419 AccDes= 0.00D+00 IRadAn=         5 IDoV= 1 UseB2=F ITyADJ=14
 ICtDFT=  3500011 ScaDFX=  1.000000  1.000000  1.000000  1.000000
 FoFCou: FMM=F IPFlag=           0 FMFlag=      100000 FMFlg1=           0
         NFxFlg=           0 DoJE=T BraDBF=F KetDBF=T FulRan=T
         wScrn=  0.000000 ICntrl=       500 IOpCl=  0 I1Cent=   200000004 NGrid=           0
         NMat0=    1 NMatS0=      1 NMatT0=    0 NMatD0=    1 NMtDS0=    0 NMtDT0=    0
 Petite list used in FoFCou.
 Requested convergence on RMS density matrix=1.00D-08 within 128 cycles.
 Requested convergence on MAX density matrix=1.00D-06.
 Requested convergence on             energy=1.00D-06.
 No special actions if energy rises.
 Inv3:  Mode=1 IEnd=    13204812.
 Iteration    1 A*A^-1 deviation from unit magnitude is 3.55D-15 for   2087.
 Iteration    1 A*A^-1 deviation from orthogonality  is 2.00D-15 for   2098   2014.
 Iteration    1 A^-1*A deviation from unit magnitude is 3.55D-15 for   2087.
 Iteration    1 A^-1*A deviation from orthogonality  is 1.40D-15 for   1584    738.
 Error on total polarization charges =  0.00832
 SCF Done:  E(RCAM-B3LYP) =  -669.724189497     A.U. after   14 cycles
            NFock= 14  Conv=0.44D-08     -V/T= 2.0080

 **********************************************************************

            Population analysis using the SCF Density.

 **********************************************************************

 Orbital symmetries:
       Occupied  (A) (A) (A) (A) (A) (A) (A) (A) (A) (A) (A) (A)
                 (A) (A) (A) (A) (A) (A) (A) (A) (A) (A) (A) (A)
                 (A) (A) (A) (A) (A) (A) (A) (A) (A) (A) (A) (A)
                 (A) (A) (A) (A) (A) (A) (A) (A) (A) (A) (A) (A)
                 (A) (A) (A) (A) (A) (A) (A)
       Virtual   (A) (A) (A) (A) (A) (A) (A) (A) (A) (A) (A) (A)
                 (A) (A) (A) (A) (A) (A) (A) (A) (A) (A) (A) (A)
                 (A) (A) (A) (A) (A) (A) (A) (A) (A) (A) (A) (A)
                 (A) (A) (A) (A) (A) (A) (A) (A) (A) (A) (A) (A)
                 (A) (A) (A) (A) (A) (A) (A) (A) (A) (A) (A) (A)
                 (A) (A) (A) (A) (A) (A) (A) (A) (A) (A) (A) (A)
                 (A) (A) (A) (A) (A) (A) (A) (A) (A) (A) (A) (A)
                 (A) (A) (A) (A) (A) (A) (A) (A) (A) (A) (A) (A)
                 (A) (A) (A) (A) (A) (A) (A) (A) (A) (A) (A) (A)
                 (A) (A) (A) (A) (A) (A) (A) (A) (A) (A) (A) (A)
                 (A) (A) (A) (A) (A) (A) (A) (A) (A) (A) (A) (A)
                 (A) (A) (A) (A) (A) (A) (A) (A) (A) (A) (A) (A)
                 (A) (A) (A) (A) (A) (A) (A) (A) (A) (A) (A) (A)
                 (A) (A) (A) (A) (A) (A) (A) (A) (A) (A) (A) (A)
                 (A) (A) (A) (A) (A) (A) (A) (A) (A) (A) (A) (A)
                 (A) (A) (A) (A) (A) (A) (A) (A) (A) (A) (A) (A)
                 (A) (A) (A) (A) (A) (A) (A) (A) (A) (A) (A) (A)
                 (A) (A) (A)
 The electronic state is 1-A.
 Alpha  occ. eigenvalues --  -19.24349 -14.39363 -10.32205 -10.29160 -10.26884
 Alpha  occ. eigenvalues --  -10.26706 -10.26567 -10.26405 -10.26184 -10.25999
 Alpha  occ. eigenvalues --  -10.25896 -10.25745 -10.25599 -10.25357 -10.25351
 Alpha  occ. eigenvalues --  -10.25236  -1.11667  -0.99080  -0.96375  -0.93176
 Alpha  occ. eigenvalues --   -0.88642  -0.86042  -0.82674  -0.82237  -0.77701
 Alpha  occ. eigenvalues --   -0.72703  -0.70065  -0.68016  -0.66175  -0.62579
 Alpha  occ. eigenvalues --   -0.60178  -0.58374  -0.56933  -0.55790  -0.53518
 Alpha  occ. eigenvalues --   -0.53069  -0.52218  -0.50556  -0.49124  -0.48916
 Alpha  occ. eigenvalues --   -0.47451  -0.46829  -0.45717  -0.44874  -0.43670
 Alpha  occ. eigenvalues --   -0.42068  -0.40894  -0.40040  -0.38785  -0.36779
 Alpha  occ. eigenvalues --   -0.35413  -0.32303  -0.29595  -0.29157  -0.23168
 Alpha virt. eigenvalues --   -0.01974   0.03458   0.06553   0.09886   0.12243
 Alpha virt. eigenvalues --    0.13877   0.14922   0.16033   0.16364   0.19444
 Alpha virt. eigenvalues --    0.20203   0.21500   0.23004   0.23685   0.24758
 Alpha virt. eigenvalues --    0.25598   0.26040   0.28869   0.29711   0.31291
 Alpha virt. eigenvalues --    0.32006   0.34405   0.34649   0.38362   0.39191
 Alpha virt. eigenvalues --    0.39245   0.41155   0.41580   0.45313   0.46684
 Alpha virt. eigenvalues --    0.54584   0.55298   0.55880   0.56456   0.58060
 Alpha virt. eigenvalues --    0.58319   0.59122   0.60898   0.61231   0.62088
 Alpha virt. eigenvalues --    0.62110   0.63094   0.64785   0.65167   0.65858
 Alpha virt. eigenvalues --    0.66445   0.66511   0.67168   0.67660   0.68658
 Alpha virt. eigenvalues --    0.68801   0.69269   0.69885   0.70108   0.70504
 Alpha virt. eigenvalues --    0.71167   0.74453   0.75732   0.76357   0.79282
 Alpha virt. eigenvalues --    0.80557   0.83106   0.84993   0.86466   0.88927
 Alpha virt. eigenvalues --    0.90282   0.90661   0.90811   0.91009   0.92393
 Alpha virt. eigenvalues --    0.93364   0.93763   0.94988   0.95949   0.96428
 Alpha virt. eigenvalues --    0.97517   0.98454   0.99613   1.01000   1.01944
 Alpha virt. eigenvalues --    1.03245   1.04236   1.05219   1.08238   1.08884
 Alpha virt. eigenvalues --    1.10669   1.11767   1.14985   1.15952   1.17541
 Alpha virt. eigenvalues --    1.19355   1.20456   1.24222   1.25153   1.28489
 Alpha virt. eigenvalues --    1.30450   1.30576   1.30839   1.33487   1.34416
 Alpha virt. eigenvalues --    1.38396   1.39697   1.41132   1.44350   1.45940
 Alpha virt. eigenvalues --    1.46761   1.47687   1.49492   1.49904   1.53235
 Alpha virt. eigenvalues --    1.54480   1.54672   1.56339   1.57449   1.57873
 Alpha virt. eigenvalues --    1.59848   1.60858   1.62134   1.66876   1.75876
 Alpha virt. eigenvalues --    1.81726   1.83339   1.83992   1.86307   1.87137
 Alpha virt. eigenvalues --    1.88949   1.90602   1.92243   1.93551   1.97524
 Alpha virt. eigenvalues --    1.97979   1.98389   2.00933   2.02007   2.02880
 Alpha virt. eigenvalues --    2.03275   2.03916   2.04784   2.06082   2.08623
 Alpha virt. eigenvalues --    2.10000   2.12222   2.12729   2.16266   2.21681
 Alpha virt. eigenvalues --    2.22809   2.23957   2.24795   2.28819   2.29494
 Alpha virt. eigenvalues --    2.30527   2.34611   2.36004   2.36814   2.38047
 Alpha virt. eigenvalues --    2.40609   2.41021   2.41265   2.43839   2.44263
 Alpha virt. eigenvalues --    2.46469   2.47098   2.49149   2.52674   2.53110
 Alpha virt. eigenvalues --    2.56466   2.60714   2.64312   2.69193   2.70657
 Alpha virt. eigenvalues --    2.73048   2.73480   2.77362   2.78222   2.80688
 Alpha virt. eigenvalues --    2.83888   2.84136   2.88237   2.89372   2.91587
 Alpha virt. eigenvalues --    2.93554   2.98503   3.00947   3.06661   3.07101
 Alpha virt. eigenvalues --    3.09462   3.19855   3.23793   3.47395   3.61331
 Alpha virt. eigenvalues --    3.63247   3.96693   4.04249   4.17731   4.18197
 Alpha virt. eigenvalues --    4.18348   4.19721   4.21529   4.23673   4.27795
 Alpha virt. eigenvalues --    4.34084   4.43260   4.45825   4.53196   4.56085
 Alpha virt. eigenvalues --    4.79707   4.99997
          Condensed to atoms (all electrons):
               1          2          3          4          5          6
     1  C    4.837445   0.467317   0.427667  -0.030171  -0.011933   0.358324
     2  C    0.467317   4.810996  -0.007183   0.420779   0.373216  -0.055953
     3  C    0.427667  -0.007183   4.848356  -0.080356   0.018652  -0.102038
     4  C   -0.030171   0.420779  -0.080356   5.115647  -0.097115   0.020207
     5  C   -0.011933   0.373216   0.018652  -0.097115   5.536113  -0.126430
     6  C    0.358324  -0.055953  -0.102038   0.020207  -0.126430   5.558372
     7  C   -0.016387  -0.067406   0.510147  -0.016201  -0.001209   0.018825
     8  N   -0.056326   0.005941   0.317222   0.000020  -0.000140  -0.012642
     9  C   -0.051027   0.016013   0.015255   0.525822   0.009270  -0.003155
    10  H    0.004376  -0.041955   0.000621   0.368537  -0.007750  -0.000170
    11  C   -0.039022   0.008480  -0.000092   0.009371   0.348428  -0.012245
    12  H    0.004501  -0.040994  -0.000163  -0.007584   0.367741   0.000325
    13  C    0.010715  -0.030561   0.007533  -0.000319  -0.048686   0.373355
    14  H   -0.040158   0.004673  -0.012326  -0.000134   0.000203   0.361003
    15  H    0.004010   0.000937  -0.034930   0.004201   0.000010  -0.000208
    16  H   -0.003513  -0.000173  -0.030243   0.000006   0.000008   0.000757
    17  H    0.004128   0.000062  -0.038740  -0.000056   0.000006  -0.000167
    18  H    0.001695   0.002085   0.002291  -0.033325  -0.000286   0.000029
    19  C    0.000072   0.007544   0.000007  -0.000396  -0.095385   0.017153
    20  C    0.009802  -0.000227  -0.000384  -0.000008   0.018788  -0.092593
    21  C    0.000096  -0.000535   0.000000  -0.000001   0.017317  -0.001034
    22  O    0.000016   0.000613   0.000000  -0.000021  -0.000655  -0.000062
    23  C   -0.000447   0.000107   0.000003   0.000001  -0.002754   0.009309
    24  H    0.000431   0.000021  -0.000006   0.000000  -0.000161  -0.007645
    25  H   -0.000001   0.000003   0.000000  -0.000000  -0.000207   0.000007
    26  H   -0.000001   0.000004  -0.000000   0.000000  -0.000683   0.000008
    27  H    0.000004  -0.000001  -0.000000  -0.000000   0.000022  -0.000274
               7          8          9         10         11         12
     1  C   -0.016387  -0.056326  -0.051027   0.004376  -0.039022   0.004501
     2  C   -0.067406   0.005941   0.016013  -0.041955   0.008480  -0.040994
     3  C    0.510147   0.317222   0.015255   0.000621  -0.000092  -0.000163
     4  C   -0.016201   0.000020   0.525822   0.368537   0.009371  -0.007584
     5  C   -0.001209  -0.000140   0.009270  -0.007750   0.348428   0.367741
     6  C    0.018825  -0.012642  -0.003155  -0.000170  -0.012245   0.000325
     7  C    5.129375  -0.101210   0.410384   0.004546   0.000119   0.000009
     8  N   -0.101210   6.977594   0.007628   0.000005   0.000048   0.000001
     9  C    0.410384   0.007628   4.958906  -0.044014  -0.000449   0.000287
    10  H    0.004546   0.000005  -0.044014   0.567523   0.000395   0.005229
    11  C    0.000119   0.000048  -0.000449   0.000395   4.898241  -0.043642
    12  H    0.000009   0.000001   0.000287   0.005229  -0.043642   0.547349
    13  C   -0.000553   0.000589   0.000109   0.000024   0.484777   0.003737
    14  H    0.000527   0.022231  -0.000032   0.000002   0.004781   0.000017
    15  H    0.361363  -0.006450  -0.039612  -0.000183  -0.000001   0.000000
    16  H    0.001282   0.320278  -0.000001  -0.000000  -0.000003  -0.000000
    17  H   -0.004167   0.329912   0.000417  -0.000000  -0.000001  -0.000000
    18  H   -0.034253  -0.000135   0.360897  -0.005001   0.000004  -0.000012
    19  C    0.000001   0.000000   0.000003  -0.000007   0.394328  -0.009629
    20  C   -0.000001  -0.000047   0.000001   0.000000  -0.034602  -0.000141
    21  C   -0.000000  -0.000000   0.000000  -0.000000  -0.036584   0.000634
    22  O   -0.000000  -0.000000  -0.000000  -0.000003  -0.057805   0.012238
    23  C    0.000000  -0.000000  -0.000000   0.000000  -0.045126  -0.000035
    24  H   -0.000000  -0.000012   0.000000   0.000000   0.004773   0.000002
    25  H    0.000000  -0.000000  -0.000000   0.000000   0.004591  -0.000006
    26  H    0.000000   0.000000  -0.000000   0.000000   0.005000  -0.000464
    27  H    0.000000   0.000000   0.000000  -0.000000   0.001326   0.000000
              13         14         15         16         17         18
     1  C    0.010715  -0.040158   0.004010  -0.003513   0.004128   0.001695
     2  C   -0.030561   0.004673   0.000937  -0.000173   0.000062   0.002085
     3  C    0.007533  -0.012326  -0.034930  -0.030243  -0.038740   0.002291
     4  C   -0.000319  -0.000134   0.004201   0.000006  -0.000056  -0.033325
     5  C   -0.048686   0.000203   0.000010   0.000008   0.000006  -0.000286
     6  C    0.373355   0.361003  -0.000208   0.000757  -0.000167   0.000029
     7  C   -0.000553   0.000527   0.361363   0.001282  -0.004167  -0.034253
     8  N    0.000589   0.022231  -0.006450   0.320278   0.329912  -0.000135
     9  C    0.000109  -0.000032  -0.039612  -0.000001   0.000417   0.360897
    10  H    0.000024   0.000002  -0.000183  -0.000000  -0.000000  -0.005001
    11  C    0.484777   0.004781  -0.000001  -0.000003  -0.000001   0.000004
    12  H    0.003737   0.000017   0.000000  -0.000000  -0.000000  -0.000012
    13  C    4.767317  -0.043758   0.000004  -0.000043   0.000017  -0.000001
    14  H   -0.043758   0.547507  -0.000011  -0.001079  -0.000288   0.000000
    15  H    0.000004  -0.000011   0.565924   0.000603   0.004346  -0.004725
    16  H   -0.000043  -0.001079   0.000603   0.397143  -0.026705   0.000002
    17  H    0.000017  -0.000288   0.004346  -0.026705   0.396470  -0.000005
    18  H   -0.000001   0.000000  -0.004725   0.000002  -0.000005   0.562351
    19  C   -0.007698  -0.000159  -0.000000  -0.000000  -0.000000  -0.000000
    20  C    0.428410  -0.007909  -0.000000   0.000002   0.000000  -0.000000
    21  C   -0.060563   0.000013   0.000000   0.000000   0.000000   0.000000
    22  O    0.003353   0.000000  -0.000000   0.000000   0.000000   0.000000
    23  C    0.012041   0.000273  -0.000000  -0.000000  -0.000000   0.000000
    24  H   -0.042009   0.005063   0.000000   0.000000   0.000000  -0.000000
    25  H    0.000877   0.000000   0.000000  -0.000000   0.000000  -0.000000
    26  H    0.000104  -0.000000   0.000000  -0.000000  -0.000000  -0.000000
    27  H    0.002390  -0.000011  -0.000000  -0.000000  -0.000000   0.000000
              19         20         21         22         23         24
     1  C    0.000072   0.009802   0.000096   0.000016  -0.000447   0.000431
     2  C    0.007544  -0.000227  -0.000535   0.000613   0.000107   0.000021
     3  C    0.000007  -0.000384   0.000000   0.000000   0.000003  -0.000006
     4  C   -0.000396  -0.000008  -0.000001  -0.000021   0.000001   0.000000
     5  C   -0.095385   0.018788   0.017317  -0.000655  -0.002754  -0.000161
     6  C    0.017153  -0.092593  -0.001034  -0.000062   0.009309  -0.007645
     7  C    0.000001  -0.000001  -0.000000  -0.000000   0.000000  -0.000000
     8  N    0.000000  -0.000047  -0.000000  -0.000000  -0.000000  -0.000012
     9  C    0.000003   0.000001   0.000000  -0.000000  -0.000000   0.000000
    10  H   -0.000007   0.000000  -0.000000  -0.000003   0.000000   0.000000
    11  C    0.394328  -0.034602  -0.036584  -0.057805  -0.045126   0.004773
    12  H   -0.009629  -0.000141   0.000634   0.012238  -0.000035   0.000002
    13  C   -0.007698   0.428410  -0.060563   0.003353   0.012041  -0.042009
    14  H   -0.000159  -0.007909   0.000013   0.000000   0.000273   0.005063
    15  H   -0.000000  -0.000000   0.000000  -0.000000  -0.000000   0.000000
    16  H   -0.000000   0.000002   0.000000   0.000000  -0.000000   0.000000
    17  H   -0.000000   0.000000   0.000000   0.000000  -0.000000   0.000000
    18  H   -0.000000  -0.000000   0.000000   0.000000   0.000000  -0.000000
    19  C    4.778820  -0.078308   0.481506   0.284618   0.015562   0.000527
    20  C   -0.078308   5.112050  -0.019593   0.000034   0.529332   0.368308
    21  C    0.481506  -0.019593   5.161948  -0.071683   0.420418   0.004841
    22  O    0.284618   0.000034  -0.071683   8.271952   0.004528   0.000002
    23  C    0.015562   0.529332   0.420418   0.004528   4.936079  -0.044669
    24  H    0.000527   0.368308   0.004841   0.000002  -0.044669   0.568151
    25  H   -0.037271   0.004296   0.358195  -0.004704  -0.036071  -0.000172
    26  H   -0.023877  -0.000068  -0.005987   0.252304   0.000377  -0.000001
    27  H    0.002811  -0.033043  -0.036000  -0.000049   0.364062  -0.005023
              25         26         27
     1  C   -0.000001  -0.000001   0.000004
     2  C    0.000003   0.000004  -0.000001
     3  C    0.000000  -0.000000  -0.000000
     4  C   -0.000000   0.000000  -0.000000
     5  C   -0.000207  -0.000683   0.000022
     6  C    0.000007   0.000008  -0.000274
     7  C    0.000000   0.000000   0.000000
     8  N   -0.000000   0.000000   0.000000
     9  C   -0.000000  -0.000000   0.000000
    10  H    0.000000   0.000000  -0.000000
    11  C    0.004591   0.005000   0.001326
    12  H   -0.000006  -0.000464   0.000000
    13  C    0.000877   0.000104   0.002390
    14  H    0.000000  -0.000000  -0.000011
    15  H    0.000000   0.000000  -0.000000
    16  H   -0.000000  -0.000000  -0.000000
    17  H    0.000000  -0.000000  -0.000000
    18  H   -0.000000  -0.000000   0.000000
    19  C   -0.037271  -0.023877   0.002811
    20  C    0.004296  -0.000068  -0.033043
    21  C    0.358195  -0.005987  -0.036000
    22  O   -0.004704   0.252304  -0.000049
    23  C   -0.036071   0.000377   0.364062
    24  H   -0.000172  -0.000001  -0.005023
    25  H    0.561896   0.004134  -0.005141
    26  H    0.004134   0.332914  -0.000004
    27  H   -0.005141  -0.000004   0.557210
 Mulliken charges:
               1
     1  C    0.118387
     2  C    0.126197
     3  C    0.158706
     4  C   -0.198906
     5  C   -0.296379
     6  C   -0.303057
     7  C   -0.195188
     8  N   -0.804506
     9  C   -0.166701
    10  H    0.147826
    11  C    0.104913
    12  H    0.160599
    13  C    0.138841
    14  H    0.159572
    15  H    0.144720
    16  H    0.341679
    17  H    0.334771
    18  H    0.148386
    19  C    0.269777
    20  C   -0.204099
    21  C   -0.212989
    22  O   -0.694675
    23  C   -0.162989
    24  H    0.147580
    25  H    0.149573
    26  H    0.436240
    27  H    0.151722
 Sum of Mulliken charges =  -0.00000
 Mulliken charges with hydrogens summed into heavy atoms:
               1
     1  C    0.118387
     2  C    0.126197
     3  C    0.158706
     4  C   -0.051080
     5  C   -0.135780
     6  C   -0.143485
     7  C   -0.050467
     8  N   -0.128056
     9  C   -0.018315
    11  C    0.104913
    13  C    0.138841
    19  C    0.269777
    20  C   -0.056519
    21  C   -0.063416
    22  O   -0.258435
    23  C   -0.011268
 Electronic spatial extent (au):  <R**2>=           3658.5443
 Charge=             -0.0000 electrons
 Dipole moment (field-independent basis, Debye):
    X=             -0.4079    Y=              0.5468    Z=             -0.0247  Tot=              0.6826
 Quadrupole moment (field-independent basis, Debye-Ang):
   XX=            -60.7596   YY=            -84.4584   ZZ=            -94.7104
   XY=             -3.6343   XZ=             -5.4609   YZ=              4.4677
 Traceless Quadrupole moment (field-independent basis, Debye-Ang):
   XX=             19.2165   YY=             -4.4823   ZZ=            -14.7342
   XY=             -3.6343   XZ=             -5.4609   YZ=              4.4677
 Octapole moment (field-independent basis, Debye-Ang**2):
  XXX=             14.1174  YYY=             -3.4719  ZZZ=              1.0001  XYY=             -1.8862
  XXY=              2.4492  XXZ=            -12.2327  XZZ=             -1.2552  YZZ=              0.9828
  YYZ=              2.3031  XYZ=              2.5188
 Hexadecapole moment (field-independent basis, Debye-Ang**3):
 XXXX=          -2741.1609 YYYY=          -1156.8787 ZZZZ=            -99.2453 XXXY=           -222.8525
 XXXZ=            -55.9732 YYYX=            -24.6071 YYYZ=             30.9843 ZZZX=             -7.1617
 ZZZY=              5.9622 XXYY=           -652.7751 XXZZ=           -633.5928 YYZZ=           -225.8630
 XXYZ=             45.1755 YYXZ=            -37.8167 ZZXY=            -40.6472
 N-N= 9.999262235087D+02 E-N=-3.557182056607D+03  KE= 6.644033217613D+02
 D1PCM: PCM CHGder 1st derivatives, ID1Alg=3 FixD1E=F DoIter=F DoCFld=F I1PDM=0.
 Calling FoFJK, ICntrl=      2127 FMM=F ISym2X=0 I1Cent= 0 IOpClX= 0 NMat=1 NMatS=1 NMatT=0.
 ***** Axes restored to original set *****
 -------------------------------------------------------------------
 Center     Atomic                   Forces (Hartrees/Bohr)
 Number     Number              X              Y              Z
 -------------------------------------------------------------------
      1        6          -0.019291586   -0.036193031    0.001094728
      2        6          -0.027524536    0.021703543    0.000560291
      3        6           0.035379702   -0.032737691    0.001043533
      4        6           0.016244322    0.005885387    0.000167925
      5        6           0.005402799   -0.021001832   -0.000483010
      6        6          -0.007043573    0.022679573    0.000534365
      7        6          -0.000577342    0.000249182   -0.001944266
      8        7          -0.027771305    0.028709900   -0.010817496
      9        6          -0.003087875    0.005635042   -0.001781468
     10        1          -0.004682778    0.010728163    0.000260057
     11        6           0.019800820    0.043088412    0.001883017
     12        1          -0.002873976    0.009260320   -0.000121749
     13        6           0.025108317   -0.022051755    0.000554612
     14        1           0.003111112   -0.008608525   -0.000809913
     15        1           0.011274735   -0.002975554    0.000716740
     16        1           0.002430493   -0.007315862    0.012843377
     17        1           0.013828212   -0.001265222   -0.001977490
     18        1           0.008980016    0.007377314    0.000114686
     19        6          -0.041009599    0.034579952   -0.003006837
     20        6          -0.016385640   -0.006692473   -0.000052780
     21        6          -0.002861589    0.004100283   -0.000315733
     22        8           0.030882428   -0.032881647    0.004375714
     23        6           0.004878927   -0.004215145   -0.000459398
     24        1           0.004652696   -0.010560502   -0.000111142
     25        1          -0.011455527    0.003005295    0.000322365
     26        1          -0.008244701   -0.003756050   -0.002573427
     27        1          -0.009164550   -0.006747079   -0.000016701
 -------------------------------------------------------------------
 Cartesian Forces:  Max     0.043088412 RMS     0.015121475

 GradGradGradGradGradGradGradGradGradGradGradGradGradGradGradGradGradGrad
 Berny optimization.
 FormGI is forming the generalized inverse of G from B-inverse, IUseBI=4.
 Internal  Forces:  Max     0.041275191 RMS     0.008415494
 Search for a local minimum.
 Step number   1 out of a maximum of  155
 All quantities printed in internal units (Hartrees-Bohrs-Radians)
 Mixed Optimization -- RFO/linear search
 Second derivative matrix not updated -- first step.
 ITU=  0
     Eigenvalues ---    0.00766   0.01295   0.01863   0.02070   0.02070
     Eigenvalues ---    0.02070   0.02084   0.02086   0.02088   0.02090
     Eigenvalues ---    0.02093   0.02097   0.02140   0.02251   0.02256
     Eigenvalues ---    0.02260   0.02277   0.02352   0.02353   0.02415
     Eigenvalues ---    0.02418   0.02499   0.02502   0.05453   0.16000
     Eigenvalues ---    0.16000   0.16000   0.16000   0.16000   0.16000
     Eigenvalues ---    0.16000   0.16000   0.16000   0.16000   0.16000
     Eigenvalues ---    0.22083   0.22100   0.23078   0.23477   0.23597
     Eigenvalues ---    0.24059   0.24910   0.24928   0.25000   0.25000
     Eigenvalues ---    0.25000   0.35740   0.37230   0.37230   0.37230
     Eigenvalues ---    0.37230   0.37230   0.37230   0.37230   0.37230
     Eigenvalues ---    0.38439   0.40989   0.41323   0.41512   0.43029
     Eigenvalues ---    0.43080   0.43702   0.45279   0.45319   0.45389
     Eigenvalues ---    0.45389   0.45635   0.45787   0.47688   0.47688
     Eigenvalues ---    0.51579   0.51588   0.52890   0.52923   0.55473
 RFO step:  Lambda=-2.49801919D-02 EMin= 7.65814595D-03
 Linear search not attempted -- first point.
 Iteration  1 RMS(Cart)=  0.03848774 RMS(Int)=  0.00067906
 Iteration  2 RMS(Cart)=  0.00077842 RMS(Int)=  0.00008746
 Iteration  3 RMS(Cart)=  0.00000126 RMS(Int)=  0.00008746
 Iteration  4 RMS(Cart)=  0.00000000 RMS(Int)=  0.00008746
 Variable       Old X    -DE/DX   Delta X   Delta X   Delta X     New X
                                 (Linear)    (Quad)   (Total)
    R1        2.64174   0.03015   0.00000   0.06412   0.06420   2.70594
    R2        2.64504   0.02950   0.00000   0.06254   0.06260   2.70765
    R3        2.64826  -0.00091   0.00000  -0.00177  -0.00175   2.64651
    R4        2.64504   0.02495   0.00000   0.05222   0.05224   2.69728
    R5        2.64826  -0.00133   0.00000  -0.00272  -0.00274   2.64552
    R6        2.56426   0.01404   0.00000   0.02466   0.02463   2.58889
    R7        2.77790  -0.02244   0.00000  -0.05869  -0.05869   2.71921
    R8        2.56426   0.01022   0.00000   0.01710   0.01704   2.58130
    R9        2.02201   0.01156   0.00000   0.02909   0.02909   2.05109
   R10        2.64826  -0.00205   0.00000  -0.00440  -0.00442   2.64384
   R11        2.02201   0.00969   0.00000   0.02438   0.02438   2.04639
   R12        2.64826  -0.00110   0.00000  -0.00235  -0.00233   2.64593
   R13        2.02201   0.00913   0.00000   0.02297   0.02297   2.04498
   R14        2.65479   0.01627   0.00000   0.03262   0.03254   2.68733
   R15        2.02201   0.01166   0.00000   0.02934   0.02934   2.05135
   R16        1.88973   0.01470   0.00000   0.02929   0.02929   1.91902
   R17        1.88973   0.01315   0.00000   0.02620   0.02620   1.91593
   R18        2.02201   0.01157   0.00000   0.02913   0.02913   2.05114
   R19        2.64174   0.02827   0.00000   0.05953   0.05964   2.70138
   R20        2.64504   0.02298   0.00000   0.04838   0.04845   2.69349
   R21        2.64504   0.02595   0.00000   0.05458   0.05461   2.69965
   R22        2.56426   0.01049   0.00000   0.01808   0.01805   2.58232
   R23        2.70231  -0.04128   0.00000  -0.09491  -0.09491   2.60740
   R24        2.56426   0.01126   0.00000   0.01949   0.01941   2.58367
   R25        2.02201   0.01138   0.00000   0.02866   0.02866   2.05066
   R26        2.65479   0.01534   0.00000   0.03099   0.03088   2.68567
   R27        2.02201   0.01185   0.00000   0.02982   0.02982   2.05182
   R28        1.81414   0.00801   0.00000   0.01382   0.01382   1.82796
   R29        2.02201   0.01126   0.00000   0.02835   0.02835   2.05036
    A1        2.08707  -0.00535   0.00000  -0.01476  -0.01464   2.07244
    A2        2.09586  -0.00270   0.00000  -0.01136  -0.01138   2.08448
    A3        2.10025   0.00805   0.00000   0.02612   0.02601   2.12627
    A4        2.08707  -0.00238   0.00000  -0.00545  -0.00535   2.08172
    A5        2.09586  -0.00328   0.00000  -0.01282  -0.01286   2.08300
    A6        2.10025   0.00566   0.00000   0.01827   0.01820   2.11845
    A7        2.09402   0.00053   0.00000   0.00328   0.00330   2.09731
    A8        2.09458  -0.00789   0.00000  -0.02936  -0.02940   2.06519
    A9        2.09458   0.00736   0.00000   0.02608   0.02604   2.12063
   A10        2.09402   0.00235   0.00000   0.00764   0.00760   2.10161
   A11        2.09458  -0.00307   0.00000  -0.01406  -0.01404   2.08055
   A12        2.09458   0.00072   0.00000   0.00642   0.00644   2.10102
   A13        2.09147   0.00471   0.00000   0.01968   0.01969   2.11115
   A14        2.09586  -0.00194   0.00000  -0.00759  -0.00759   2.08826
   A15        2.09586  -0.00277   0.00000  -0.01209  -0.01209   2.08377
   A16        2.09147   0.00624   0.00000   0.02619   0.02627   2.11774
   A17        2.09586  -0.00394   0.00000  -0.01751  -0.01756   2.07830
   A18        2.09586  -0.00230   0.00000  -0.00867  -0.00872   2.08714
   A19        2.10209   0.00297   0.00000   0.00775   0.00765   2.10974
   A20        2.09055  -0.00144   0.00000  -0.00364  -0.00358   2.08696
   A21        2.09055  -0.00153   0.00000  -0.00411  -0.00406   2.08648
   A22        1.91063   0.00374   0.00000   0.01621   0.01622   1.92686
   A23        1.91063  -0.00063   0.00000  -0.00739  -0.00738   1.90326
   A24        1.91063  -0.00322   0.00000  -0.02542  -0.02538   1.88525
   A25        2.10209   0.00187   0.00000   0.00153   0.00137   2.10347
   A26        2.09055   0.00012   0.00000   0.00497   0.00503   2.09557
   A27        2.09055  -0.00200   0.00000  -0.00650  -0.00644   2.08410
   A28        2.09586  -0.00021   0.00000  -0.00261  -0.00268   2.09318
   A29        2.10025   0.00827   0.00000   0.02828   0.02816   2.12841
   A30        2.08707  -0.00806   0.00000  -0.02567  -0.02549   2.06159
   A31        2.09586  -0.00476   0.00000  -0.01907  -0.01907   2.07679
   A32        2.10025   0.00739   0.00000   0.02501   0.02489   2.12514
   A33        2.08707  -0.00264   0.00000  -0.00593  -0.00583   2.08125
   A34        2.09402   0.00793   0.00000   0.02865   0.02868   2.12270
   A35        2.09458  -0.01667   0.00000  -0.06053  -0.06060   2.03399
   A36        2.09458   0.00874   0.00000   0.03188   0.03180   2.12639
   A37        2.09402   0.00210   0.00000   0.00854   0.00850   2.10251
   A38        2.09458  -0.00296   0.00000  -0.01458  -0.01455   2.08003
   A39        2.09458   0.00086   0.00000   0.00603   0.00606   2.10064
   A40        2.10209  -0.00151   0.00000  -0.01038  -0.01049   2.09160
   A41        2.09055   0.00081   0.00000   0.00548   0.00554   2.09608
   A42        2.09055   0.00070   0.00000   0.00490   0.00495   2.09550
   A43        1.91063  -0.00799   0.00000  -0.04320  -0.04320   1.86743
   A44        2.10209   0.00218   0.00000   0.00478   0.00461   2.10670
   A45        2.09055   0.00056   0.00000   0.00651   0.00659   2.09714
   A46        2.09055  -0.00274   0.00000  -0.01129  -0.01121   2.07934
    D1        0.00000   0.00041   0.00000   0.00895   0.00888   0.00888
    D2        3.14159   0.00023   0.00000   0.00514   0.00513  -3.13646
    D3       -3.14159   0.00044   0.00000   0.00955   0.00947  -3.13213
    D4       -0.00000   0.00027   0.00000   0.00574   0.00572   0.00572
    D5       -0.00000  -0.00026   0.00000  -0.00624  -0.00622  -0.00622
    D6        3.14159   0.00025   0.00000   0.00535   0.00521  -3.13639
    D7        3.14159  -0.00029   0.00000  -0.00684  -0.00683   3.13477
    D8       -0.00000   0.00022   0.00000   0.00475   0.00461   0.00460
    D9        0.00000  -0.00029   0.00000  -0.00620  -0.00621  -0.00621
   D10        3.14159  -0.00046   0.00000  -0.01011  -0.01012   3.13147
   D11       -3.14159  -0.00025   0.00000  -0.00559  -0.00561   3.13599
   D12       -0.00000  -0.00043   0.00000  -0.00951  -0.00952  -0.00952
   D13        0.00000  -0.00007   0.00000  -0.00146  -0.00148  -0.00147
   D14        3.14159  -0.00010   0.00000  -0.00228  -0.00227   3.13932
   D15       -3.14159   0.00011   0.00000   0.00236   0.00235  -3.13924
   D16        0.00000   0.00008   0.00000   0.00154   0.00155   0.00155
   D17        0.00000  -0.00004   0.00000  -0.00075  -0.00074  -0.00074
   D18        3.14159   0.00006   0.00000   0.00137   0.00138  -3.14022
   D19        3.14159  -0.00021   0.00000  -0.00458  -0.00457   3.13703
   D20       -0.00000  -0.00011   0.00000  -0.00247  -0.00245  -0.00245
   D21       -0.00000  -0.00022   0.00000  -0.00387  -0.00383  -0.00383
   D22        3.14159  -0.00017   0.00000  -0.00287  -0.00278   3.13881
   D23        3.14159  -0.00073   0.00000  -0.01546  -0.01563   3.12596
   D24       -0.00000  -0.00068   0.00000  -0.01446  -0.01458  -0.01458
   D25       -1.57080   0.00070   0.00000   0.04197   0.04196  -1.52884
   D26        2.61799   0.00275   0.00000   0.06771   0.06772   2.68572
   D27        1.57080   0.00121   0.00000   0.05357   0.05355   1.62435
   D28       -0.52360   0.00326   0.00000   0.07930   0.07932  -0.44428
   D29       -0.00000  -0.00042   0.00000  -0.00870  -0.00867  -0.00868
   D30        3.14159   0.00009   0.00000   0.00159   0.00163  -3.13997
   D31       -3.14159  -0.00039   0.00000  -0.00787  -0.00787   3.13373
   D32        0.00000   0.00012   0.00000   0.00241   0.00243   0.00243
   D33       -0.00000  -0.00017   0.00000  -0.00378  -0.00382  -0.00382
   D34        3.14159  -0.00007   0.00000  -0.00144  -0.00139   3.14019
   D35        3.14159  -0.00027   0.00000  -0.00590  -0.00593   3.13567
   D36       -0.00000  -0.00016   0.00000  -0.00356  -0.00350  -0.00350
   D37       -0.00000   0.00008   0.00000   0.00167   0.00168   0.00167
   D38       -3.14159  -0.00007   0.00000  -0.00161  -0.00166   3.13993
   D39        3.14159   0.00025   0.00000   0.00559   0.00561  -3.13598
   D40        0.00000   0.00011   0.00000   0.00230   0.00227   0.00227
   D41        0.00000   0.00057   0.00000   0.01152   0.01152   0.01152
   D42       -3.14159   0.00006   0.00000   0.00123   0.00128  -3.14030
   D43       -3.14159   0.00052   0.00000   0.01051   0.01047  -3.13112
   D44        0.00000   0.00001   0.00000   0.00023   0.00024   0.00024
   D45        0.00000   0.00015   0.00000   0.00331   0.00338   0.00338
   D46        3.14159   0.00030   0.00000   0.00658   0.00663  -3.13496
   D47       -3.14159   0.00005   0.00000   0.00099   0.00105  -3.14054
   D48        0.00000   0.00019   0.00000   0.00425   0.00430   0.00430
   D49       -3.14159  -0.00007   0.00000  -0.00148  -0.00154   3.14005
   D50        0.00000  -0.00083   0.00000  -0.01779  -0.01749  -0.01749
   D51       -0.00000   0.00004   0.00000   0.00085   0.00084   0.00084
   D52        3.14159  -0.00072   0.00000  -0.01546  -0.01511   3.12648
   D53        3.14159  -0.00003   0.00000  -0.00058  -0.00055   3.14104
   D54       -0.00000   0.00005   0.00000   0.00095   0.00098   0.00097
   D55        0.00000  -0.00018   0.00000  -0.00385  -0.00390  -0.00390
   D56       -3.14159  -0.00010   0.00000  -0.00232  -0.00237   3.13922
   D57       -0.00000  -0.00029   0.00000  -0.00632  -0.00638  -0.00638
   D58        3.14159  -0.00035   0.00000  -0.00754  -0.00768   3.13391
   D59        3.14159   0.00047   0.00000   0.00999   0.01042  -3.13118
   D60       -0.00000   0.00041   0.00000   0.00877   0.00912   0.00912
   D61        2.61799   0.00230   0.00000   0.05878   0.05862   2.67661
   D62       -0.52360   0.00154   0.00000   0.04247   0.04263  -0.48097
   D63       -0.00000  -0.00007   0.00000  -0.00158  -0.00164  -0.00164
   D64        3.14159   0.00016   0.00000   0.00323   0.00328  -3.13832
   D65        3.14159  -0.00015   0.00000  -0.00312  -0.00319   3.13840
   D66       -0.00000   0.00008   0.00000   0.00169   0.00173   0.00173
   D67        0.00000   0.00031   0.00000   0.00678   0.00683   0.00684
   D68       -3.14159   0.00008   0.00000   0.00196   0.00197  -3.13962
   D69       -3.14159   0.00037   0.00000   0.00800   0.00813  -3.13346
   D70        0.00000   0.00014   0.00000   0.00318   0.00326   0.00327
         Item               Value     Threshold  Converged?
 Maximum Force            0.041275     0.000450     NO 
 RMS     Force            0.008415     0.000300     NO 
 Maximum Displacement     0.133196     0.001800     NO 
 RMS     Displacement     0.038579     0.001200     NO 
 Predicted change in Energy=-1.353526D-02
 GradGradGradGradGradGradGradGradGradGradGradGradGradGradGradGradGradGrad

                          Input orientation:                          
 ---------------------------------------------------------------------
 Center     Atomic      Atomic             Coordinates (Angstroms)
 Number     Number       Type             X           Y           Z
 ---------------------------------------------------------------------
      1          6           0        1.356926   -0.375987   -0.010792
      2          6           0        0.996011    1.009658    0.000395
      3          6           0        2.746319   -0.726083   -0.013096
      4          6           0        2.024910    1.998930   -0.002157
      5          6           0       -0.357801    1.365998    0.009027
      6          6           0        0.350033   -1.349336   -0.019873
      7          6           0        3.703312    0.254233   -0.012068
      8          7           0        3.098903   -2.121045   -0.030957
      9          6           0        3.339800    1.629059   -0.013387
     10          1           0        1.750089    3.048935    0.004176
     11          6           0       -1.359238    0.389021    0.005988
     12          1           0       -0.636261    2.412461    0.016209
     13          6           0       -1.004716   -0.995725   -0.010817
     14          1           0        0.629233   -2.394698   -0.037880
     15          1           0        4.753132   -0.021891   -0.011207
     16          1           0        3.145339   -2.486574    0.915339
     17          1           0        4.014935   -2.225442   -0.452753
     18          1           0        4.117674    2.386054   -0.013748
     19          6           0       -2.743647    0.727969    0.016312
     20          6           0       -2.039158   -1.980956   -0.021980
     21          6           0       -3.716321   -0.231830    0.011470
     22          8           0       -3.048761    2.073135    0.051104
     23          6           0       -3.353871   -1.605827   -0.012077
     24          1           0       -1.768761   -3.031785   -0.036982
     25          1           0       -4.763621    0.054249    0.026795
     26          1           0       -3.918164    2.176594   -0.360153
     27          1           0       -4.135477   -2.358351   -0.017561
 ---------------------------------------------------------------------
                    Distance matrix (angstroms):
                    1          2          3          4          5
     1  C    0.000000
     2  C    1.431920   0.000000
     3  C    1.432825   2.465067   0.000000
     4  C    2.467085   1.427340   2.818909   0.000000
     5  C    2.444421   1.399951   3.743375   2.465368   0.000000
     6  C    1.400473   2.445925   2.476020   3.743850   2.806226
     7  C    2.429549   2.810747   1.369984   2.420971   4.210595
     8  N    2.465790   3.771530   1.438942   4.257756   4.910181
     9  C    2.819930   2.424292   2.428768   1.365967   3.707015
    10  H    3.447447   2.174235   3.904296   1.085392   2.697314
    11  C    2.821890   2.435656   4.254341   3.747576   1.399060
    12  H    3.427676   2.152305   4.614452   2.693172   1.082901
    13  C    2.441603   2.832771   3.760714   4.259890   2.448801
    14  H    2.146035   3.424271   2.695727   4.610115   3.888351
    15  H    3.414616   3.896176   2.126779   3.395143   5.296064
    16  H    2.917313   4.204803   2.029911   4.713481   5.285424
    17  H    3.268154   4.448046   2.012651   4.691328   5.677368
    18  H    3.905203   3.411663   3.400884   2.128300   4.590306
    19  C    4.246664   3.750287   5.679337   4.935060   2.469695
    20  C    3.756253   4.261047   4.947279   5.688280   3.745667
    21  C    5.075343   4.873139   6.481559   6.159400   3.719235
    22  O    5.041042   4.182551   6.436047   5.074493   2.782638
    23  C    4.868687   5.075667   6.163300   6.475003   4.220027
    24  H    4.101691   4.896797   5.069791   6.300892   4.618811
    25  H    6.135765   5.838396   7.550477   7.061641   4.596982
    26  H    5.870630   5.063680   7.277452   5.956496   3.670087
    27  H    5.839204   6.138076   7.072725   7.545628   5.304933
                    6          7          8          9         10
     6  C    0.000000
     7  C    3.716985   0.000000
     8  N    2.855161   2.451044   0.000000
     9  C    4.220140   1.422072   3.757875   0.000000
    10  H    4.615790   3.409648   5.343148   2.131557   0.000000
    11  C    2.438065   5.064376   5.116328   4.859941   4.091828
    12  H    3.889112   4.846715   5.874211   4.052611   2.469800
    13  C    1.400167   4.871132   4.255166   5.075856   4.893715
    14  H    1.082155   4.058013   2.484794   4.851639   5.557988
    15  H    4.598855   1.085526   2.672698   2.173281   4.295169
    16  H    3.159377   2.946768   1.015502   4.223598   5.780899
    17  H    3.792948   2.537736   1.013866   3.937770   5.758243
    18  H    5.305497   2.171718   4.620837   1.085417   2.458697
    19  C    3.726576   6.464404   6.500347   6.149892   5.057736
    20  C    2.471271   6.162153   5.139978   6.478076   6.297529
    21  C    4.217231   7.435574   7.072355   7.297422   6.375351
    22  O    4.823914   6.993060   7.442557   6.404301   4.897279
    23  C    3.712783   7.298196   6.473337   7.434361   6.907784
    24  H    2.705590   6.382956   4.952135   6.915303   7.025607
    25  H    5.302988   8.469383   8.158095   8.255123   7.169175
    26  H    5.546664   7.867880   8.235126   7.286843   5.746547
    27  H    4.597599   8.262702   7.238283   8.472262   7.992440
                   11         12         13         14         15
    11  C    0.000000
    12  H    2.148746   0.000000
    13  C    1.429507   3.428151   0.000000
    14  H    3.421262   4.971235   2.151197   0.000000
    15  H    6.126191   5.913745   5.839620   4.757885   0.000000
    16  H    5.420994   6.253757   4.505924   2.692184   3.085150
    17  H    5.993963   6.585111   5.186946   3.415223   2.365489
    18  H    5.829674   4.754103   6.138022   5.918226   2.490384
    19  C    1.425336   2.697886   2.448620   4.596772   7.534239
    20  C    2.465738   4.612124   1.428592   2.700323   7.069176
    21  C    2.437483   4.059441   2.817239   4.854304   8.472085
    22  O    2.385952   2.436496   3.687799   5.787668   8.078524
    23  C    2.821047   4.851066   2.427088   4.060554   8.260288
    24  H    3.445499   5.561042   2.174854   2.481181   7.182981
    25  H    3.420866   4.753564   3.902977   5.923208   9.517133
    26  H    3.142861   3.311822   4.321322   6.455958   8.952456
    27  H    3.905907   5.916612   3.414449   4.764892   9.190564
                   16         17         18         19         20
    16  H    0.000000
    17  H    1.641969   0.000000
    18  H    5.054814   4.633485   0.000000
    19  C    6.769173   7.390609   7.058887   0.000000
    20  C    5.292752   6.074321   7.548339   2.799294   0.000000
    21  C    7.278957   7.997644   8.259868   1.366503   2.423517
    22  O    7.739814   8.284168   7.173556   1.379774   4.178552
    23  C    6.623862   7.407930   8.471075   2.412423   1.367220
    24  H    5.035132   5.854417   8.000227   3.884455   1.085164
    25  H    8.354456   9.082401   9.182394   2.129390   3.401049
    26  H    8.559503   9.073067   8.046027   1.902558   4.574958
    27  H    7.341459   8.163104   9.519658   3.385810   2.130024
                   21         22         23         24         25
    21  C    0.000000
    22  O    2.400015   0.000000
    23  C    1.421194   3.692134   0.000000
    24  H    3.411023   5.263684   2.132263   0.000000
    25  H    1.085778   2.649007   2.178247   4.300797   0.000000
    26  H    2.445271   0.967315   3.840090   5.643720   2.317083
    27  H    2.167632   4.563304   1.085002   2.460738   2.493426
                   26         27
    26  H    0.000000
    27  H    4.553056   0.000000
 Stoichiometry    C14H11NO
 Framework group  C1[X(C14H11NO)]
 Deg. of freedom    75
 Full point group                 C1      NOp   1
 Largest Abelian subgroup         C1      NOp   1
 Largest concise Abelian subgroup C1      NOp   1
                         Standard orientation:                         
 ---------------------------------------------------------------------
 Center     Atomic      Atomic             Coordinates (Angstroms)
 Number     Number       Type             X           Y           Z
 ---------------------------------------------------------------------
      1          6           0       -1.351467    0.390191   -0.007666
      2          6           0       -1.005547   -0.999283    0.002265
      3          6           0       -2.736996    0.755289   -0.008786
      4          6           0       -2.045083   -1.977371   -0.000323
      5          6           0        0.344339   -1.370244    0.009732
      6          6           0       -0.334116    1.352604   -0.016708
      7          6           0       -3.704530   -0.214624   -0.007836
      8          7           0       -3.074489    2.153994   -0.025391
      9          6           0       -3.355904   -1.593299   -0.010404
     10          1           0       -1.781626   -3.030290    0.005058
     11          6           0        1.356277   -0.404149    0.006739
     12          1           0        0.611474   -2.419661    0.015962
     13          6           0        1.016736    0.984361   -0.008816
     14          1           0       -0.602010    2.400937   -0.033764
     15          1           0       -4.751303    0.072832   -0.006071
     16          1           0       -3.116346    2.519304    0.921203
     17          1           0       -3.989617    2.268600   -0.446498
     18          1           0       -4.141917   -2.341840   -0.010799
     19          6           0        2.736948   -0.758051    0.015891
     20          6           0        2.061762    1.958359   -0.019949
     21          6           0        3.719938    0.191180    0.011101
     22          8           0        3.027523   -2.106463    0.049494
     23          6           0        3.372349    1.569032   -0.011199
     24          1           0        1.802732    3.012060   -0.034002
     25          1           0        4.764094   -0.106216    0.025517
     26          1           0        3.895485   -2.219011   -0.362419
     27          1           0        4.162041    2.313066   -0.016655
 ---------------------------------------------------------------------
 Rotational constants (GHZ):           1.1636017           0.3706420           0.2814935
 Standard basis: 6-31G(d) (6D, 7F)
 There are   262 symmetry adapted cartesian basis functions of A   symmetry.
 There are   262 symmetry adapted basis functions of A   symmetry.
   262 basis functions,   492 primitive gaussians,   262 cartesian basis functions
    55 alpha electrons       55 beta electrons
       nuclear repulsion energy       992.3214275327 Hartrees.
 NAtoms=   27 NActive=   27 NUniq=   27 SFac= 1.00D+00 NAtFMM=   60 NAOKFM=F Big=F
 Integral buffers will be    131072 words long.
 Raffenetti 2 integral format.
 Two-electron integral symmetry is turned on.
 ------------------------------------------------------------------------------
 Polarizable Continuum Model (PCM)
 =================================
 Model                : PCM.
 Atomic radii         : UFF (Universal Force Field).
 Polarization charges : Total charges.
 Charge compensation  : None.
 Solution method      : On-the-fly selection.
 Cavity type          : Scaled VdW (van der Waals Surface) (Alpha=1.100).
 Cavity algorithm     : GePol (No added spheres)
                        Default sphere list used, NSphG=   27.
                        Lebedev-Laikov grids with approx.  5.0 points / Ang**2.
                        Smoothing algorithm: York/Karplus (Gamma=1.0000).
                        Polarization charges: spherical gaussians, with
                                              point-specific exponents (IZeta= 3).
                        Self-potential: point-specific (ISelfS= 7).
                        Self-field    : sphere-specific E.n sum rule (ISelfD= 2).
 1st derivatives      : Analytical E(r).r(x)/FMM algorithm (CHGder, D1EAlg=3).
                        Cavity 1st derivative terms included.
 Solvent              : Ethanol, Eps=  24.852000 Eps(inf)=   1.852593
 ------------------------------------------------------------------------------
 One-electron integrals computed using PRISM.
 NBasis=   262 RedAO= T EigKep=  2.06D-04  NBF=   262
 NBsUse=   262 1.00D-06 EigRej= -1.00D+00 NBFU=   262
 Initial guess from the checkpoint file:  "anthracene_deri_opt.chk"
 B after Tr=     0.000000   -0.000000    0.000000
         Rot=    0.999986    0.000058   -0.000080    0.005242 Ang=   0.60 deg.
 ExpMin= 1.61D-01 ExpMax= 5.48D+03 ExpMxC= 8.25D+02 IAcc=2 IRadAn=         4 AccDes= 0.00D+00
 Harris functional with IExCor=20419 and IRadAn=       4 diagonalized for initial guess.
 HarFok:  IExCor=20419 AccDes= 0.00D+00 IRadAn=         4 IDoV= 1 UseB2=F ITyADJ=14
[...]
                 (A) (A) (A) (A) (A) (A) (A) (A) (A) (A) (A) (A)
                 (A) (A) (A) (A) (A) (A) (A)
       Virtual   (A) (A) (A) (A) (A) (A) (A) (A) (A) (A) (A) (A)
                 (A) (A) (A) (A) (A) (A) (A) (A) (A) (A) (A) (A)
                 (A) (A) (A) (A) (A) (A) (A) (A) (A) (A) (A) (A)
                 (A) (A) (A) (A) (A) (A) (A) (A) (A) (A) (A) (A)
                 (A) (A) (A) (A) (A) (A) (A) (A) (A) (A) (A) (A)
                 (A) (A) (A) (A) (A) (A) (A) (A) (A) (A) (A) (A)
                 (A) (A) (A) (A) (A) (A) (A) (A) (A) (A) (A) (A)
                 (A) (A) (A) (A) (A) (A) (A) (A) (A) (A) (A) (A)
                 (A) (A) (A) (A) (A) (A) (A) (A) (A) (A) (A) (A)
                 (A) (A) (A) (A) (A) (A) (A) (A) (A) (A) (A) (A)
                 (A) (A) (A) (A) (A) (A) (A) (A) (A) (A) (A) (A)
                 (A) (A) (A) (A) (A) (A) (A) (A) (A) (A) (A) (A)
                 (A) (A) (A) (A) (A) (A) (A) (A) (A) (A) (A) (A)
                 (A) (A) (A) (A) (A) (A) (A) (A) (A) (A) (A) (A)
                 (A) (A) (A) (A) (A) (A) (A) (A) (A) (A) (A) (A)
                 (A) (A) (A) (A) (A) (A) (A) (A) (A) (A) (A) (A)
                 (A) (A) (A) (A) (A) (A) (A) (A) (A) (A) (A) (A)
                 (A) (A) (A)
 The electronic state is 1-A.
 Alpha  occ. eigenvalues --  -19.25475 -14.40940 -10.32769 -10.30367 -10.27290
 Alpha  occ. eigenvalues --  -10.27250 -10.27215 -10.27080 -10.26512 -10.26488
 Alpha  occ. eigenvalues --  -10.26308 -10.26097 -10.25826 -10.25606 -10.25182
 Alpha  occ. eigenvalues --  -10.25176  -1.14528  -1.00307  -0.95907  -0.92276
 Alpha  occ. eigenvalues --   -0.88146  -0.85646  -0.82037  -0.81552  -0.77730
 Alpha  occ. eigenvalues --   -0.72347  -0.70240  -0.67795  -0.66180  -0.63297
 Alpha  occ. eigenvalues --   -0.59817  -0.59233  -0.57462  -0.55583  -0.53626
 Alpha  occ. eigenvalues --   -0.53163  -0.50710  -0.50281  -0.49340  -0.49183
 Alpha  occ. eigenvalues --   -0.47751  -0.46513  -0.46034  -0.45052  -0.43373
 Alpha  occ. eigenvalues --   -0.42193  -0.41615  -0.39678  -0.39369  -0.38560
 Alpha  occ. eigenvalues --   -0.35946  -0.32752  -0.29145  -0.27392  -0.22698
 Alpha virt. eigenvalues --   -0.01429   0.02912   0.06956   0.10662   0.12493
 Alpha virt. eigenvalues --    0.13003   0.14223   0.15727   0.16153   0.19265
 Alpha virt. eigenvalues --    0.19511   0.21340   0.22600   0.22780   0.24155
 Alpha virt. eigenvalues --    0.24945   0.26654   0.29003   0.30176   0.31241
 Alpha virt. eigenvalues --    0.32880   0.33574   0.34268   0.36883   0.38406
 Alpha virt. eigenvalues --    0.39438   0.40612   0.42325   0.43818   0.46938
 Alpha virt. eigenvalues --    0.52439   0.53981   0.55864   0.56297   0.56782
 Alpha virt. eigenvalues --    0.58232   0.58283   0.60335   0.61212   0.61355
 Alpha virt. eigenvalues --    0.62049   0.62576   0.63459   0.64927   0.65065
 Alpha virt. eigenvalues --    0.65756   0.65895   0.66219   0.67210   0.68454
 Alpha virt. eigenvalues --    0.68962   0.69167   0.69407   0.69613   0.70063
 Alpha virt. eigenvalues --    0.70871   0.74464   0.75196   0.75990   0.77633
 Alpha virt. eigenvalues --    0.79644   0.82098   0.82328   0.86619   0.87961
 Alpha virt. eigenvalues --    0.89478   0.90033   0.90285   0.90586   0.91320
 Alpha virt. eigenvalues --    0.92091   0.93067   0.94969   0.95314   0.96252
 Alpha virt. eigenvalues --    0.96558   0.98461   0.99563   1.00556   1.02327
 Alpha virt. eigenvalues --    1.03660   1.03984   1.04539   1.05444   1.08680
 Alpha virt. eigenvalues --    1.08989   1.10493   1.13800   1.15076   1.16630
 Alpha virt. eigenvalues --    1.17171   1.21307   1.23119   1.25502   1.28682
 Alpha virt. eigenvalues --    1.30169   1.30365   1.31239   1.34016   1.36723
 Alpha virt. eigenvalues --    1.38436   1.39936   1.42201   1.43210   1.44260
 Alpha virt. eigenvalues --    1.44805   1.47071   1.48182   1.50300   1.52919
 Alpha virt. eigenvalues --    1.54491   1.54858   1.56117   1.56382   1.57558
 Alpha virt. eigenvalues --    1.59163   1.60886   1.62932   1.69458   1.76924
 Alpha virt. eigenvalues --    1.78824   1.80931   1.81596   1.83307   1.84019
 Alpha virt. eigenvalues --    1.87140   1.91632   1.92311   1.93491   1.94928
 Alpha virt. eigenvalues --    1.96184   1.97509   1.98632   1.99686   2.00443
 Alpha virt. eigenvalues --    2.01490   2.01843   2.03043   2.05181   2.06992
 Alpha virt. eigenvalues --    2.08094   2.09848   2.11103   2.14336   2.18984
 Alpha virt. eigenvalues --    2.20949   2.21976   2.24892   2.27099   2.29305
 Alpha virt. eigenvalues --    2.30466   2.31672   2.34455   2.35452   2.36820
 Alpha virt. eigenvalues --    2.38526   2.40362   2.42096   2.44388   2.45226
 Alpha virt. eigenvalues --    2.45931   2.47301   2.50329   2.52335   2.53143
 Alpha virt. eigenvalues --    2.55581   2.60275   2.64561   2.68612   2.71526
 Alpha virt. eigenvalues --    2.72791   2.73884   2.74939   2.75867   2.77397
 Alpha virt. eigenvalues --    2.80571   2.82046   2.86182   2.89596   2.90400
 Alpha virt. eigenvalues --    2.94042   2.97851   3.01586   3.03915   3.05414
 Alpha virt. eigenvalues --    3.07555   3.19061   3.25375   3.40383   3.53796
 Alpha virt. eigenvalues --    3.59222   3.94866   4.04903   4.15847   4.16574
 Alpha virt. eigenvalues --    4.17636   4.19305   4.21352   4.24337   4.28692
 Alpha virt. eigenvalues --    4.35048   4.42804   4.46247   4.52575   4.56853
 Alpha virt. eigenvalues --    4.78029   4.96302
          Condensed to atoms (all electrons):
               1          2          3          4          5          6
     1  C    4.874166   0.475716   0.416835  -0.038787  -0.013115   0.371312
     2  C    0.475716   4.762483  -0.003979   0.431480   0.396555  -0.046647
     3  C    0.416835  -0.003979   4.708542  -0.064272   0.014667  -0.095588
     4  C   -0.038787   0.431480  -0.064272   5.100763  -0.083367   0.016098
     5  C   -0.013115   0.396555   0.014667  -0.083367   5.481762  -0.117627
     6  C    0.371312  -0.046647  -0.095588   0.016098  -0.117627   5.518481
     7  C   -0.022360  -0.052705   0.535325  -0.030090  -0.000511   0.013865
     8  N   -0.065142   0.005867   0.327306   0.000190  -0.000112  -0.014297
     9  C   -0.043416   0.005583   0.007920   0.539894   0.008028  -0.002081
    10  H    0.004028  -0.041213   0.000549   0.365239  -0.006668  -0.000164
    11  C   -0.038623   0.004359  -0.000154   0.008047   0.357993  -0.016376
    12  H    0.004231  -0.040386  -0.000150  -0.007001   0.363830   0.000381
    13  C    0.004790  -0.029178   0.005778  -0.000063  -0.044555   0.412362
    14  H   -0.042617   0.003521  -0.011353  -0.000146   0.000545   0.349967
    15  H    0.004325   0.000624  -0.035483   0.004047   0.000005  -0.000155
    16  H   -0.013689  -0.000322  -0.017883   0.000003   0.000008   0.006559
    17  H    0.005326   0.000012  -0.028842  -0.000037   0.000005  -0.000260
    18  H    0.001301   0.002255   0.002677  -0.033385  -0.000236   0.000019
    19  C    0.000076   0.006232   0.000003  -0.000291  -0.085906   0.015968
    20  C    0.008442  -0.000235  -0.000213  -0.000005   0.015959  -0.084722
    21  C    0.000040  -0.000327   0.000000  -0.000001   0.015834  -0.000764
    22  O    0.000017   0.000564   0.000000  -0.000019   0.000836  -0.000090
    23  C   -0.000349   0.000079   0.000002   0.000000  -0.002404   0.008382
    24  H    0.000217   0.000019  -0.000004   0.000000  -0.000153  -0.007485
    25  H   -0.000000   0.000002   0.000000  -0.000000  -0.000165   0.000004
    26  H   -0.000001   0.000004  -0.000000   0.000000  -0.000697   0.000008
    27  H    0.000003  -0.000001  -0.000000  -0.000000   0.000019  -0.000222
               7          8          9         10         11         12
     1  C   -0.022360  -0.065142  -0.043416   0.004028  -0.038623   0.004231
     2  C   -0.052705   0.005867   0.005583  -0.041213   0.004359  -0.040386
     3  C    0.535325   0.327306   0.007920   0.000549  -0.000154  -0.000150
     4  C   -0.030090   0.000190   0.539894   0.365239   0.008047  -0.007001
     5  C   -0.000511  -0.000112   0.008028  -0.006668   0.357993   0.363830
     6  C    0.013865  -0.014297  -0.002081  -0.000164  -0.016376   0.000381
     7  C    5.102577  -0.095451   0.450114   0.004122   0.000052   0.000012
     8  N   -0.095451   7.015717   0.005649   0.000005  -0.000000   0.000001
     9  C    0.450114   0.005649   4.910324  -0.041415  -0.000366   0.000252
    10  H    0.004122   0.000005  -0.041415   0.571045   0.000298   0.005464
    11  C    0.000052  -0.000000  -0.000366   0.000298   4.935104  -0.041834
    12  H    0.000012   0.000001   0.000252   0.005464  -0.041834   0.549381
    13  C   -0.000320   0.000604   0.000066   0.000021   0.490845   0.003590
    14  H    0.000111   0.008066   0.000007   0.000002   0.004754   0.000019
    15  H    0.358509  -0.007829  -0.037215  -0.000157  -0.000000  -0.000000
    16  H    0.004811   0.306407  -0.000108  -0.000000  -0.000011   0.000000
    17  H   -0.008169   0.322719   0.000164  -0.000000  -0.000000  -0.000000
    18  H   -0.035389  -0.000115   0.361241  -0.004606   0.000003  -0.000011
    19  C    0.000000   0.000000   0.000002  -0.000008   0.390772  -0.009480
    20  C   -0.000000  -0.000011   0.000000   0.000000  -0.037861  -0.000146
    21  C    0.000000  -0.000000  -0.000000  -0.000000  -0.050724   0.000459
    22  O   -0.000000  -0.000000  -0.000000  -0.000003  -0.065042   0.010675
    23  C   -0.000000  -0.000000  -0.000000   0.000000  -0.038113  -0.000016
    24  H   -0.000000  -0.000002   0.000000   0.000000   0.004344   0.000002
    25  H    0.000000  -0.000000  -0.000000  -0.000000   0.003952  -0.000006
    26  H    0.000000   0.000000   0.000000   0.000000   0.006842  -0.000411
    27  H    0.000000   0.000000   0.000000  -0.000000   0.001095   0.000000
              13         14         15         16         17         18
     1  C    0.004790  -0.042617   0.004325  -0.013689   0.005326   0.001301
     2  C   -0.029178   0.003521   0.000624  -0.000322   0.000012   0.002255
     3  C    0.005778  -0.011353  -0.035483  -0.017883  -0.028842   0.002677
     4  C   -0.000063  -0.000146   0.004047   0.000003  -0.000037  -0.033385
     5  C   -0.044555   0.000545   0.000005   0.000008   0.000005  -0.000236
     6  C    0.412362   0.349967  -0.000155   0.006559  -0.000260   0.000019
     7  C   -0.000320   0.000111   0.358509   0.004811  -0.008169  -0.035389
     8  N    0.000604   0.008066  -0.007829   0.306407   0.322719  -0.000115
     9  C    0.000066   0.000007  -0.037215  -0.000108   0.000164   0.361241
    10  H    0.000021   0.000002  -0.000157  -0.000000  -0.000000  -0.004606
    11  C    0.490845   0.004754  -0.000000  -0.000011  -0.000000   0.000003
    12  H    0.003590   0.000019  -0.000000   0.000000  -0.000000  -0.000011
    13  C    4.715185  -0.030769   0.000002   0.000030   0.000001  -0.000001
    14  H   -0.030769   0.565099  -0.000007   0.000539  -0.000139   0.000000
    15  H    0.000002  -0.000007   0.570986  -0.000028   0.005901  -0.004499
    16  H    0.000030   0.000539  -0.000028   0.395331  -0.026731   0.000002
    17  H    0.000001  -0.000139   0.005901  -0.026731   0.386104  -0.000008
    18  H   -0.000001   0.000000  -0.004499   0.000002  -0.000008   0.562705
    19  C   -0.010354  -0.000208   0.000000  -0.000000  -0.000000  -0.000000
    20  C    0.433319  -0.007738  -0.000000   0.000004   0.000000  -0.000000
    21  C   -0.050783   0.000026   0.000000   0.000000   0.000000   0.000000
    22  O    0.002977   0.000000  -0.000000  -0.000000   0.000000   0.000000
    23  C    0.005662   0.000179   0.000000  -0.000000   0.000000   0.000000
    24  H   -0.040074   0.006048  -0.000000   0.000001   0.000000  -0.000000
    25  H    0.000660   0.000000   0.000000  -0.000000   0.000000  -0.000000
    26  H    0.000063  -0.000000   0.000000  -0.000000  -0.000000  -0.000000
    27  H    0.002297  -0.000010  -0.000000   0.000000  -0.000000   0.000000
              19         20         21         22         23         24
     1  C    0.000076   0.008442   0.000040   0.000017  -0.000349   0.000217
     2  C    0.006232  -0.000235  -0.000327   0.000564   0.000079   0.000019
     3  C    0.000003  -0.000213   0.000000   0.000000   0.000002  -0.000004
     4  C   -0.000291  -0.000005  -0.000001  -0.000019   0.000000   0.000000
     5  C   -0.085906   0.015959   0.015834   0.000836  -0.002404  -0.000153
     6  C    0.015968  -0.084722  -0.000764  -0.000090   0.008382  -0.007485
     7  C    0.000000  -0.000000   0.000000  -0.000000  -0.000000  -0.000000
     8  N    0.000000  -0.000011  -0.000000  -0.000000  -0.000000  -0.000002
     9  C    0.000002   0.000000  -0.000000  -0.000000  -0.000000   0.000000
    10  H   -0.000008   0.000000  -0.000000  -0.000003   0.000000   0.000000
    11  C    0.390772  -0.037861  -0.050724  -0.065042  -0.038113   0.004344
    12  H   -0.009480  -0.000146   0.000459   0.010675  -0.000016   0.000002
    13  C   -0.010354   0.433319  -0.050783   0.002977   0.005662  -0.040074
    14  H   -0.000208  -0.007738   0.000026   0.000000   0.000179   0.006048
    15  H    0.000000  -0.000000   0.000000  -0.000000   0.000000  -0.000000
    16  H   -0.000000   0.000004   0.000000  -0.000000  -0.000000   0.000001
    17  H   -0.000000   0.000000   0.000000   0.000000   0.000000   0.000000
    18  H   -0.000000  -0.000000   0.000000   0.000000   0.000000  -0.000000
    19  C    4.708141  -0.067639   0.493426   0.313076   0.016480   0.000431
    20  C   -0.067639   5.094782  -0.027758   0.000188   0.542416   0.364409
    21  C    0.493426  -0.027758   5.187631  -0.078144   0.423700   0.004359
    22  O    0.313076   0.000188  -0.078144   8.218849   0.004012   0.000002
    23  C    0.016480   0.542416   0.423700   0.004012   4.916221  -0.041472
    24  H    0.000431   0.364409   0.004359   0.000002  -0.041472   0.566768
    25  H   -0.035665   0.003847   0.356063  -0.005008  -0.032638  -0.000146
    26  H   -0.028997  -0.000071  -0.006475   0.253911   0.000476  -0.000001
    27  H    0.002524  -0.032293  -0.034932  -0.000049   0.362789  -0.004561
              25         26         27
     1  C   -0.000000  -0.000001   0.000003
     2  C    0.000002   0.000004  -0.000001
     3  C    0.000000  -0.000000  -0.000000
     4  C   -0.000000   0.000000  -0.000000
     5  C   -0.000165  -0.000697   0.000019
     6  C    0.000004   0.000008  -0.000222
     7  C    0.000000   0.000000   0.000000
     8  N   -0.000000   0.000000   0.000000
     9  C   -0.000000   0.000000   0.000000
    10  H   -0.000000   0.000000  -0.000000
    11  C    0.003952   0.006842   0.001095
    12  H   -0.000006  -0.000411   0.000000
    13  C    0.000660   0.000063   0.002297
    14  H    0.000000  -0.000000  -0.000010
    15  H    0.000000   0.000000  -0.000000
    16  H   -0.000000  -0.000000   0.000000
    17  H    0.000000  -0.000000  -0.000000
    18  H   -0.000000  -0.000000   0.000000
    19  C   -0.035665  -0.028997   0.002524
    20  C    0.003847  -0.000071  -0.032293
    21  C    0.356063  -0.006475  -0.034932
    22  O   -0.005008   0.253911  -0.000049
    23  C   -0.032638   0.000476   0.362789
    24  H   -0.000146  -0.000001  -0.004561
    25  H    0.556807   0.005892  -0.004531
    26  H    0.005892   0.329835  -0.000008
    27  H   -0.004531  -0.000008   0.554715
 Mulliken charges:
               1
     1  C    0.107276
     2  C    0.119640
     3  C    0.238318
     4  C   -0.208299
     5  C   -0.300530
     6  C   -0.326926
     7  C   -0.224502
     8  N   -0.809572
     9  C   -0.164644
    10  H    0.143463
    11  C    0.080644
    12  H    0.161143
    13  C    0.127845
    14  H    0.154103
    15  H    0.140975
    16  H    0.345079
    17  H    0.343955
    18  H    0.148046
    19  C    0.291416
    20  C   -0.204672
    21  C   -0.231629
    22  O   -0.656750
    23  C   -0.165404
    24  H    0.147299
    25  H    0.150932
    26  H    0.439629
    27  H    0.153167
 Sum of Mulliken charges =  -0.00000
 Mulliken charges with hydrogens summed into heavy atoms:
               1
     1  C    0.107276
     2  C    0.119640
     3  C    0.238318
     4  C   -0.064836
     5  C   -0.139387
     6  C   -0.172824
     7  C   -0.083527
     8  N   -0.120538
     9  C   -0.016598
    11  C    0.080644
    13  C    0.127845
    19  C    0.291416
    20  C   -0.057373
    21  C   -0.080697
    22  O   -0.217121
    23  C   -0.012237
 Electronic spatial extent (au):  <R**2>=           3703.8482
 Charge=              0.0000 electrons
 Dipole moment (field-independent basis, Debye):
    X=              0.9457    Y=              1.2990    Z=              1.3876  Tot=              2.1230
 Quadrupole moment (field-independent basis, Debye-Ang):
   XX=            -62.3188   YY=            -80.0426   ZZ=            -97.5302
   XY=             -7.8233   XZ=             -3.9149   YZ=              3.8118
 Traceless Quadrupole moment (field-independent basis, Debye-Ang):
   XX=             17.6450   YY=             -0.0787   ZZ=            -17.5663
   XY=             -7.8233   XZ=             -3.9149   YZ=              3.8118
 Octapole moment (field-independent basis, Debye-Ang**2):
  XXX=             42.9269  YYY=              9.5140  ZZZ=              2.0068  XYY=             -1.2684
  XXY=             -8.5383  XXZ=             12.9154  XZZ=              3.4636  YZZ=             -1.4436
  YYZ=             10.3527  XYZ=            -12.1195
 Hexadecapole moment (field-independent basis, Debye-Ang**3):
 XXXX=          -2791.4186 YYYY=          -1110.8419 ZZZZ=           -100.7844 XXXY=           -255.7495
 XXXZ=            -34.7889 YYYX=            -71.2141 YYYZ=             29.4478 ZZZX=             -3.4020
 ZZZY=              3.5643 XXYY=           -642.6901 XXZZ=           -678.1125 YYZZ=           -237.1510
 XXYZ=             32.2533 YYXZ=            -30.2227 ZZXY=            -27.0426
 N-N= 9.941081475614D+02 E-N=-3.544883360559D+03  KE= 6.637510099357D+02
 Unable to Open any file for archive entry.
 1\1\GINC-NODE27\FOpt\RCAM-B3LYP\6-31G(d)\C14H11N1O1\AKHANNA2\01-Jun-20
 22\0\\# opt cam-b3lyp/6-31g(d) scrf=(iefpcm,solvent=ethanol) geom=conn
 ectivity\\Anthracene Derivative Optimization\\0,1\C,1.3802108632,-0.36
 93086232,-0.0192845678\C,1.0122893662,1.0179270757,-0.0247606551\C,2.7
 835715668,-0.7156913869,-0.0083600316\C,2.0317160673,2.0180096607,-0.0
 586800222\C,-0.3418713048,1.3581592247,-0.0106497113\C,0.375003644,-1.
 3362758518,-0.0374312374\C,3.7223226724,0.2829392937,-0.0473424461\N,3
 .1482306835,-2.0630854769,-0.0191930685\C,3.3424673853,1.6507321406,-0
 .0827800124\H,1.7391069322,3.0633743643,-0.0705941555\C,-1.3402391892,
 0.3870988326,-0.0068166157\H,-0.6226106309,2.4057752725,-0.0097834608\
 C,-0.9800458483,-0.998134536,-0.0291322972\H,0.6334520684,-2.389127723
 ,-0.0832638677\H,4.7770653641,0.022674549,-0.0388538319\H,2.5909695422
 ,-2.6548283073,0.5849964531\H,4.1326586465,-2.210886324,0.1692899838\H
 ,4.1214388783,2.4066460135,-0.1121648525\C,-2.7356203841,0.7279956925,
 0.0066435765\C,-2.0097951279,-1.9894240508,-0.0455526055\C,-3.69389647
 13,-0.2439739899,-0.0069061986\O,-3.0154235912,2.0586223766,0.03196322
 56\C,-3.3191224061,-1.616673733,-0.0340564675\H,-1.7270648349,-3.03743
 1099,-0.0648646549\H,-4.7455376782,0.0286305134,0.0026515952\H,-3.9764
 892496,2.1855276531,0.0389187763\H,-4.1019671041,-2.368502851,-0.04466
 42904\\Version=ES64L-GDVRevI.10+\State=1-A\HF=-669.7459641\RMSD=8.113e
 -09\RMSF=8.861e-06\Dipole=-0.3610949,-0.5146666,0.5498776\Quadrupole=1
 3.3440571,-0.3003035,-13.0437536,-5.5610591,2.9222947,-2.8385322\PG=C0
 1 [X(C14H11N1O1)]\\@
 The archive entry for this job was punched.


 NOTHING MAKES A PERSON MORE PRODUCTIVE THAN THE LAST MINUTE.
 Job cpu time:       0 days  1 hours 31 minutes 23.0 seconds.
 Elapsed time:       0 days  0 hours  5 minutes 50.7 seconds.
 File lengths (MBytes):  RWF=    192 Int=      0 D2E=      0 Chk=     11 Scr=      1
 Normal termination of Gaussian DV at Wed Jun  1 02:31:31 2022.
